6
Lattice="3.98918 0.0 0.0 0.0 3.98918 0.0 -1.994588250541637 -1.994588250541637 3.0941534745552794" Properties=species:S:1:pos:R:3:REF_forces:R:3 config_type=buildcell buildcell_config_i=158 RSS_min_vol_per_atom=4.1 buildcell_type=narrow_even gap_rss_group=ALL gap_rss_iter=0 buildcell_symmetry="1 P1 P 1 @ 0.01" vasp_rundir=run_iter_0/run_VASP_37oj_bd2 REF_energy=-29.22760157 REF_stress="-0.3226236471806093 -0.09033261011993418 -0.31041122792796155 -0.16957016388389434 -0.1487504128046755 -0.051100963855732234" pbc="T T T"
B       -0.63641269       1.67780510       1.12907349      -4.73854626       0.10971780       2.06472594
B        1.46080943       0.27954488       2.00643514     -13.05646084      -7.96212645     -12.49792156
B       -1.15058286      -0.22621445       1.98290140       4.71261125      -1.68935211       0.28282247
B        0.74034131       2.25120791       1.01773166       5.38644053       0.41056768       1.62330988
B       -1.97039202       0.94378692       2.92166169       6.19569086      12.48939686      10.47794462
B       -2.05081700      -1.23639455       3.12557821       1.50026446      -3.35820378      -1.95088136
8
Lattice="3.24271 0.0 0.0 -1.6213564825723747 2.893354980869187 0.0 0.0 0.0 7.32091" Properties=species:S:1:pos:R:3:REF_forces:R:3 config_type=buildcell buildcell_config_i=1069 RSS_min_vol_per_atom=4.1 buildcell_type=narrow_even gap_rss_group=ALL gap_rss_iter=0 buildcell_symmetry="1 P1 P 1 @ 0.01" vasp_rundir=run_iter_0/run_VASP_g9z6n8zy REF_energy=-47.69807226 REF_stress="-0.28078410247640034 -0.27529103603432137 -0.0023537972287455814 -0.019518222144812865 -0.018310471267113874 0.002297630986627364" pbc="T T T"
B        1.20334839       1.49284825       5.37825605       2.26712469       2.42287191      -0.21307212
B        2.24133479       1.48325934       1.98400911      -4.59811076       2.83123442       0.87958125
B        0.62559809       1.58341815       1.60608476      -4.64628220      -2.24426227      -1.94701436
B       -0.41342202       1.46033291       5.62130483      -0.76175447       3.61948414       1.11371024
B        2.07778101       0.02218711       5.25611599      -2.24896846       1.48898111      -0.64180457
B        1.13289592       0.11223202       1.92372696       3.01406370      -0.35460778       0.36629693
B        2.71967726       0.07228476       1.91471765       6.20885432      -0.23684330       0.68702775
B        0.40965216       0.22026795       5.41028241       0.76507318      -7.52685823      -0.24472511
6
Lattice="3.75306 0.0 0.0 0.0 3.81422 0.0 0.0 -1.9071099999999992 3.303211415622682" Properties=species:S:1:pos:R:3:REF_forces:R:3 config_type=buildcell buildcell_config_i=1547 RSS_min_vol_per_atom=4.1 buildcell_type=narrow_even gap_rss_group=ALL gap_rss_iter=0 buildcell_symmetry="1 P1 P 1 @ 0.01" vasp_rundir=run_iter_0/run_VASP_t4zebhyi REF_energy=-34.90980365 REF_stress="0.1150461578623979 0.1004071292150514 0.09212307236533107 0.0006747027924176287 -0.006228304476829375 -0.03723011051691412" pbc="T T T"
B        2.80451391       0.09515270       3.03593287       0.83213254      -0.14954426       0.50810816
B        1.65612523       0.58808861       1.69983702       0.19450736       0.26703161      -0.76595889
B        0.41072365      -0.64373961       1.86506067      -0.14851029      -0.04076363       0.41160969
B        0.93256850       1.75178910       0.28547442      -0.45116256      -0.17683822      -0.34136411
B        3.40454847       1.10427802       1.40746892      -0.59341479      -0.00630990       0.92430748
B        2.07310362       2.52630997       1.42262805       0.16644773       0.10642439      -0.73670233
6
Lattice="3.59882 0.0 0.0 -1.7650339855645352 3.13626536221063 0.0 -0.9168927033684586 -1.5681321614416546 4.242680795766045" Properties=species:S:1:pos:R:3:REF_forces:R:3 config_type=buildcell buildcell_config_i=1962 RSS_min_vol_per_atom=4.1 buildcell_type=narrow_even gap_rss_group=ALL gap_rss_iter=0 buildcell_symmetry="1 P1 P 1 @ 0.01" vasp_rundir=run_iter_0/run_VASP_xocr5gs7 REF_energy=-28.6987123 REF_stress="-0.1841590371120712 -0.5793893992514312 -0.6593091294407684 -0.05341229647781913 -0.1655133681688535 -0.24346363473661792" pbc="T T T"
B        2.70170742      -0.69568608       2.91922116      -0.99438385      11.47351288     -12.26260835
B        2.96410254      -0.43203652       1.36481480      -3.38784458      -4.21727837       3.04347269
B        0.28779395       1.23625516       2.80750487      -3.19774107      -6.44443143       0.91973173
B        0.02436491       0.83993108       1.34165552       3.27291596       6.11347791      -0.86817865
B        0.56138733       0.73002237      -0.17249178       4.35634974      -5.79821754      12.03644249
B        1.23809188       2.11496163       0.03142473      -0.04929620      -1.12706345      -2.86885990
6
Lattice="2.29971 0.0 0.0 0.0 3.7972 0.0 0.0 0.0 5.9032" Properties=species:S:1:pos:R:3:REF_forces:R:3 config_type=buildcell buildcell_config_i=2147 RSS_min_vol_per_atom=4.1 buildcell_type=narrow_even gap_rss_group=ALL gap_rss_iter=0 buildcell_symmetry="1 P1 P 1 @ 0.01" vasp_rundir=run_iter_0/run_VASP_ce16saai REF_energy=-24.79440257 REF_stress="-1.0136513308745443 -0.06324403204648235 -0.36805969278565076 -0.00020606520262113665 0.10826682597165009 0.040744401467676196" pbc="T T T"
B        1.19952642       3.78337357       5.00473131      -2.16346900       3.01664932      -7.84755512
B        1.30215799       3.77378466       0.93982385      -2.43868582       0.10921775       2.28468693
B        0.15792128       1.97534347       0.91629010      -9.19792642       2.53308320       9.29884995
B        0.05425600       1.85225823       4.89338948      -3.55217398       0.18844770      -3.67473175
B        2.32390623      -0.19132802      -0.17249178       4.67906784      -3.20573357       4.31396158
B        1.09362625       1.79731689       0.03142473      12.67318738      -2.64166439      -4.37521159
8
Lattice="2.95134 0.0 0.0 -1.4756699999999994 2.555935415205165 0.0 0.0 0.0 8.4033" Properties=species:S:1:pos:R:3:REF_forces:R:3 config_type=buildcell buildcell_config_i=2346 RSS_min_vol_per_atom=4.1 buildcell_type=narrow_even gap_rss_group=ALL gap_rss_iter=0 buildcell_symmetry="1 P1 P 1 @ 0.01" vasp_rundir=run_iter_0/run_VASP_463709hh REF_energy=-40.915525 REF_stress="-0.513902395591616 -0.4929210340341024 0.1478244050907075 0.004040690156099924 0.003976244040322474 -0.049851584240518214" pbc="T T T"
B       -0.13232636       0.83825419       7.18332445      -1.52531556       2.60926186       0.00747809
B        0.98104841       1.94886507       7.09514190       0.53312442      -3.42069100      -1.13662307
B       -0.48882636       2.36425327       7.07160816       1.23253629       0.90515118      -2.27458280
B       -0.12774177       0.80573885       1.23817143      -6.40201195      -4.72874950       1.00249456
B        0.85294165       1.78095238       1.11225262       2.19433455       3.42302665      -0.79238158
B       -0.70297640       2.18622669       1.31616914       4.24356503       1.39035560       2.97256842
B        1.38486774       0.71074802       3.03712781       0.00457281      -0.01312801      -0.15607490
B        1.45309252       0.85873121       5.37026225      -0.28080560      -0.16522678       0.37712127
8
Lattice="2.70797 0.0 0.0 0.0 5.16411 0.0 0.0 -2.5820549999999987 4.472250447937259" Properties=species:S:1:pos:R:3:REF_forces:R:3 config_type=buildcell buildcell_config_i=2489 RSS_min_vol_per_atom=4.1 buildcell_type=narrow_even gap_rss_group=ALL gap_rss_iter=0 buildcell_symmetry="1 P1 P 1 @ 0.01" vasp_rundir=run_iter_0/run_VASP_fjzfj6rb REF_energy=-49.27788305 REF_stress="-0.08657478374059671 0.07858562685001078 0.04352535379350357 -0.03527189873222747 0.013257332708671117 -0.00809718533623481" pbc="T T T"
B        1.09417092       0.94591799       4.44503629       0.40599261      -2.33860826      -2.04229713
B        1.19680249       0.70808033       1.42753998      -0.02624293       0.73515043       0.95299316
B        1.20242078      -1.61449661       3.06633234      -0.78307936      -6.22910195      -3.59212115
B        1.09875551       1.57596881       0.04541004       0.25510547       2.01816285       0.08329242
B        1.06869573       1.65923131       2.84880499       0.97478450       0.34044500       1.33987657
B        0.98827075       4.17201197       1.39039540       0.64571036       2.12413994       3.57059078
B        1.58123990      -0.14123063       3.12806532      -0.54222188       4.17760315      -1.64886407
B        1.64946467       2.58880808       1.34827518      -0.93004878      -0.82779116       1.33652942
6
Lattice="2.4334 0.0 0.0 -0.8070884729443042 2.6973618717629324 0.0 0.0 0.0 7.33382" Properties=species:S:1:pos:R:3:REF_forces:R:3 config_type=buildcell buildcell_config_i=3042 RSS_min_vol_per_atom=4.1 buildcell_type=narrow_even gap_rss_group=ALL gap_rss_iter=0 buildcell_symmetry="1 P1 P 1 @ 0.01" vasp_rundir=run_iter_0/run_VASP__qx13n6z REF_energy=-31.8020913 REF_stress="-0.08396928431200337 -0.3272939988964293 -0.6468396213973766 0.006920499872519423 -0.023239791535222983 0.06906797076139186" pbc="T T T"
B        1.51259824       0.39375439       6.06690795      -2.22810705       3.45446463      -4.54905538
B        1.61522981       0.38416548       1.30826721       0.18109915       1.47479960       3.93896135
B        1.22098417       1.80787040       6.53686186       2.63244756      -1.07335202       4.72503225
B        1.11731890       1.68478516       0.70343773       0.68817599       0.46998571      -8.12199215
B        0.93844838       1.73297857       2.05756227      -0.75212882      -1.97286506      10.04141844
B        0.85802340       1.82302348       5.13519068      -0.52148683      -2.35303286      -6.03436450
6
Lattice="3.66092 0.0 0.0 1.8304566323172486 3.840864614225005 0.0 1.8304566323172486 1.4357748268648778 3.5624137366885007" Properties=species:S:1:pos:R:3:REF_forces:R:3 config_type=buildcell buildcell_config_i=3279 RSS_min_vol_per_atom=4.1 buildcell_type=narrow_even gap_rss_group=ALL gap_rss_iter=0 buildcell_symmetry="1 P1 P 1 @ 0.01" vasp_rundir=run_iter_0/run_VASP_ha_1ndj2 REF_energy=-36.36202047 REF_stress="-0.021121067272285594 0.054056499961130884 -0.0042502763188491536 0.06734310248899121 0.014736224080096127 0.0006443582415305208" pbc="T T T"
B        4.01211707       1.13869382       2.96797752      -0.03768456      -2.17475014       2.03697180
B        5.34215060       2.12965917       3.55529844      -1.08446762      -1.64719939       3.28607251
B        5.95082566       2.99831777       2.39346450      -0.61851916       2.35444209      -2.48353207
B        3.41364489       1.87467827       1.71833549       0.18197911       1.17635806      -3.25810098
B        2.76988286       3.12663496       0.60202897      -0.30796902      -1.13372998       2.53083869
B        4.51991788       3.05993824       1.03811084       1.86666124       1.42487936      -2.11224995
18
Lattice="3.59685 0.0 0.0 -1.798424999999999 3.1149634736020584 0.0 0.0 0.0 12.96491" Properties=species:S:1:pos:R:3:REF_forces:R:3 config_type=buildcell buildcell_config_i=3643 RSS_min_vol_per_atom=4.1 buildcell_type=narrow_even gap_rss_group=ALL gap_rss_iter=0 buildcell_symmetry="1 P1 P 1 @ 0.01" vasp_rundir=run_iter_0/run_VASP_9b8h7a_c REF_energy=-68.21716338 REF_stress="-1.0184258367502952 -0.7978533650376931 -0.7153324963060153 0.0836400671812874 0.10990924777823347 -0.06580012538652569" pbc="T T T"
B        0.68078928       1.46939925       8.59588707       2.15980309      -3.14050081      -6.89499700
B        2.91968017       1.80337119       8.50770452      -7.89089963       4.52167413      -5.01060680
B        2.15470123      -0.11830526       8.48417078     -24.47560982     -18.70272875       9.24219960
B       -0.80266006       1.90439289       3.68656136     -10.74214825      -2.22168289       0.17428921
B        0.34361503       2.69037920       3.56064255       4.44024996      10.10703579      -0.50492746
B        0.48126851       1.29620195       3.76455907       6.30093985      -7.88348672       0.39108949
B        2.87560953       0.45252683       7.84699927      16.15250121      22.19120854     -20.94417658
B        0.80685022       0.25584960       7.55795958       4.55236828       2.94423743      -3.87476268
B        1.54499694       2.28320175       7.58533504       2.20424184      -8.74094073      -5.14355256
B       -0.77912556       1.72819866      10.23489187      -2.54342781       1.77896583       0.74556449
B        0.09843280       3.11333896      10.26271152      -1.14901817      -4.08431469       8.63044293
B        0.55232081       1.59580777      10.14197688       5.20322489      -1.32658545       6.09619879
B       -1.42356184       2.12856451      11.38357516      -6.50528401       0.15340108      10.09625084
B        0.95658894       3.27747321      11.53353059      -4.67457105      -0.32016424       5.94828926
B        0.49598110       0.67165819      11.36854156       7.88170550       0.78118316       4.52763888
B        0.74899875       0.22969636       9.50641418       0.47321683      -2.13499695      -2.92193378
B        1.66111062       2.08978706       9.43311036       4.32248854       4.73111875      -0.27450881
B        2.90903481       0.50541996       9.46186959       4.29021875       1.34657653      -0.28249782
6
Lattice="1.56707 0.0 0.0 0.0 5.88177 0.0 0.0 -2.940884999999999 5.093762239217199" Properties=species:S:1:pos:R:3:REF_forces:R:3 config_type=buildcell buildcell_config_i=3967 RSS_min_vol_per_atom=4.1 buildcell_type=narrow_even gap_rss_group=ALL gap_rss_iter=0 buildcell_symmetry="1 P1 P 1 @ 0.01" vasp_rundir=run_iter_0/run_VASP_433dkbgv REF_energy=-27.04127804 REF_stress="-0.7319543941007182 -0.8225220659891932 -0.5390823388364849 -0.060828795236905264 -0.0057119256274195665 0.05549028634284264" pbc="T T T"
B        0.10113838       3.27778881       0.98424642       2.71162477     -11.60754231     -11.56871586
B        1.24848318       3.41625611       2.36746994       1.45310058       6.05081563       8.00117816
B        0.73174486       2.16811179       1.73645360       1.31568336      -8.99064024       3.36893612
B        0.43769359       1.68141023       0.29407492      -1.01808071      -2.15680229      -4.44430902
B        1.45234720       4.53155624       1.15346139      -3.28532946      18.23774315       1.53793692
B        0.84956560       2.27073562       3.45858590      -1.17699854      -1.53357395       3.10497369
9
Lattice="3.23912 0.0 0.0 -1.6195599999999994 2.8051602059062515 0.0 0.0 0.0 8.21512" Properties=species:S:1:pos:R:3:REF_forces:R:3 config_type=buildcell buildcell_config_i=4942 RSS_min_vol_per_atom=4.1 buildcell_type=narrow_odd gap_rss_group=ALL gap_rss_iter=0 buildcell_symmetry="1 P1 P 1 @ 0.01" vasp_rundir=run_iter_0/run_VASP_3kqpa4ut REF_energy=-46.39618242 REF_stress="-0.2452957342703974 -0.19509988275444948 -0.49351833332531425 0.040378030074922446 0.04302264418612093 -0.04101962799031751" pbc="T T T"
B        1.18663509       2.07215101       7.53216260      -4.11068522      -4.78538313     -10.03081146
B       -0.22922940       0.75411672       7.44398005      -3.44070543       8.97186718      -4.52070879
B       -0.59751001       2.82355438       7.42044630       8.81711744      -1.97096473     -11.60073361
B        1.29228362       1.98128637       0.70115328      -5.13411382     -11.53004695      12.25581099
B        0.88832494      -0.13297873       0.57523447       8.15739452       2.89579036      10.03558152
B        2.70029492       0.61789965       0.77915099      -4.28119407       6.41137666       3.84293414
B        2.46220379       1.04715359       4.25412488       2.23660156       2.20524415      -0.79363610
B        1.34964997       0.00675282       3.96508518      -1.92686706      -1.63052669       0.38473248
B        0.87900793       1.62786850       3.99246064      -0.31754790      -0.56735685       0.42683084
6
Lattice="3.79197 0.0 0.0 0.0 3.79197 0.0 0.0 0.0 4.07364" Properties=species:S:1:pos:R:3:REF_forces:R:3 config_type=buildcell buildcell_config_i=5242 RSS_min_vol_per_atom=4.1 buildcell_type=wide_even gap_rss_group=ALL gap_rss_iter=0 buildcell_symmetry="1 P1 P 1 @ 0.01" vasp_rundir=run_iter_0/run_VASP_yb5p2961 REF_energy=-32.53576923 REF_stress="0.19781675083471548 0.17690200845552123 0.09230720842509502 -0.034121427563150224 -0.024143359126464668 0.01064786897307346" pbc="T T T"
B        2.80842666       1.89087062       4.07932967       3.23915312       0.44219168       0.71254795
B        1.18551774       1.86385761       3.99114712      -3.17862512       0.25595652      -0.00526913
B        2.06261833       1.10995822       1.93079338       0.95675170      -3.35409130       0.10747384
B        1.94152895       2.71241348       1.93116784      -0.52343302       2.86005473      -0.05361713
B        1.92018123      -0.19132802       3.42982562      -0.24365585      -0.21093118       0.13108461
B       -0.05622875       1.79470189       1.59692214      -0.25019084       0.00681955      -0.89222014
6
Lattice="2.80932 0.0 0.0 -1.4046599999999994 2.4329424873596994 0.0 0.0 0.0 5.47705" Properties=species:S:1:pos:R:3:REF_forces:R:3 config_type=buildcell buildcell_config_i=5563 RSS_min_vol_per_atom=4.1 buildcell_type=wide_even gap_rss_group=ALL gap_rss_iter=0 buildcell_symmetry="1 P1 P 1 @ 0.01" vasp_rundir=run_iter_0/run_VASP_ainxvx01 REF_energy=-26.38848299 REF_stress="-1.2908848727846824 -1.1339776631323069 -0.6667145340297304 0.050005322615427845 -0.028851365186516646 0.05630867231413792" pbc="T T T"
B        0.44221334       2.39933161       2.05370041       8.47508787       4.43579286      -4.35568637
B        0.64122791       0.86299685       1.96551786      -2.48453055       0.09036556      -8.48591578
B       -0.72354599       1.64305847       1.94198412      -6.31031564      -3.39640373      -4.95941830
B       -0.43466920       0.84007041       3.44154547      -3.68233316      -6.84269426       5.25388432
B        0.90566322       1.37498697       3.31562666       2.91770977       5.49836096       8.04928892
B       -0.44877096       2.31187493       3.51954318       1.08438171       0.21457861       4.49784721
10
Lattice="2.12143 0.0 0.0 0.0 6.50007 0.0 0.0 0.0 6.56925" Properties=species:S:1:pos:R:3:REF_forces:R:3 config_type=buildcell buildcell_config_i=5963 RSS_min_vol_per_atom=4.1 buildcell_type=wide_even gap_rss_group=ALL gap_rss_iter=0 buildcell_symmetry="1 P1 P 1 @ 0.01" vasp_rundir=run_iter_0/run_VASP_ht9onuhv REF_energy=-55.35176169 REF_stress="0.15369043534479218 0.07824784983281165 0.2285299332524126 0.007045874052489482 0.00428514465313561 0.0007358856412542655" pbc="T T T"
B        0.13819890       2.35264690       4.79293596       0.28207533      -0.24168293      -2.61449844
B        0.24083047       4.11018133       1.81766920       0.02659916       0.17117859       2.51694075
B        0.24644877       5.69325181       5.07876046      -0.01203393      -0.33619055       1.79376293
B        0.14278349       0.83721990       1.39696913       0.31697992       0.39421099      -2.37151307
B        0.32087927       2.48213777       0.30716201      -0.10203943      -5.41965657       3.11867607
B        0.24045429       3.72532110       6.12102094      -0.37013181       5.34836733      -2.78709783
B        0.20588064       5.78227042       2.95153609      -0.18533185      -5.27403867      -2.45432929
B        0.27410542       0.58332203       3.62180397      -0.01279358       5.16253926       2.63377915
B        1.33549975       0.01109226      -0.11509936      -0.00661362      -0.02912897       0.30748028
B        1.42750783       3.18997113       3.25545563       0.06328982       0.22440151      -0.14320056
6
Lattice="3.03209 0.0 0.0 0.0 4.10523 0.0 0.0 -0.004966952709753502 4.79988743008425" Properties=species:S:1:pos:R:3:REF_forces:R:3 config_type=buildcell buildcell_config_i=6205 RSS_min_vol_per_atom=4.1 buildcell_type=wide_even gap_rss_group=ALL gap_rss_iter=0 buildcell_symmetry="1 P1 P 1 @ 0.01" vasp_rundir=run_iter_0/run_VASP_3m8c_3o4 REF_energy=-29.15597883 REF_stress="-0.5891234480557463 -0.047232656211282045 -0.5606007221672723 -0.03549954701723232 -0.02500467780512005 -0.04263543861093895" pbc="T T T"
B        0.72302462       3.80224229       3.18013627       1.34709705       0.39096170      -3.56512931
B        2.51103978       3.79513686       0.69201001     -11.19604081      -7.84305050      -3.38750298
B        1.50353220       0.39681204       1.86621425      -4.65223160       0.23500771       0.50856725
B        1.74073509       0.27124332       4.26653243      -5.14385658       0.40626542      -1.84563803
B        2.90442097       0.09193471       1.82871616       9.59355972       3.12453394      12.77757517
B        0.09563651       0.17949615       4.43257639      10.05147223       3.68628173      -4.48787211
6
Lattice="3.0526 0.0 0.0 0.0 3.0526 0.0 0.0 0.0 5.68626" Properties=species:S:1:pos:R:3:REF_forces:R:3 config_type=buildcell buildcell_config_i=6532 RSS_min_vol_per_atom=4.1 buildcell_type=wide_even gap_rss_group=ALL gap_rss_iter=0 buildcell_symmetry="1 P1 P 1 @ 0.01" vasp_rundir=run_iter_0/run_VASP_wvflcyhp REF_energy=-32.78247645 REF_stress="-0.2849213079529665 -0.2324263848039793 0.02946863023530146 0.10859499398582162 0.051858880750933 -0.04836774950024287" pbc="T T T"
B        2.81897518       0.68171733       2.80379196       1.39159983       4.74316659       0.97299009
B        0.43559922       2.33364090       2.71560941     -13.76461043     -12.35883816       4.24401677
B        0.85346504       0.36003971       5.53520567       7.01260227      -6.21529328       2.86319038
B        2.41131224       2.72296199       5.53558013      -2.31799426       1.44466021      -0.03453521
B        0.02419623       1.33497198       4.93937919      -4.82051185       4.60116304      -3.14277043
B        1.47007125      -0.10128311       2.30016571      12.49891445       7.78514160      -4.90289160
6
Lattice="2.28343 0.0 0.0 -1.1417149999999996 1.977508387763501 0.0 0.0 0.0 8.3951" Properties=species:S:1:pos:R:3:REF_forces:R:3 config_type=buildcell buildcell_config_i=6709 RSS_min_vol_per_atom=4.1 buildcell_type=wide_even gap_rss_group=ALL gap_rss_iter=0 buildcell_symmetry="1 P1 P 1 @ 0.01" vasp_rundir=run_iter_0/run_VASP_4ih34yij REF_energy=-33.63017154 REF_stress="-0.19329965156111212 -0.1520005724702184 -0.7449876275650621 0.05441769889668334 -0.0006471048113798567 0.01770550384503526" pbc="T T T"
B        0.74129074       0.53058539       6.26591021      -0.72925747      -0.28232589      -4.85646821
B        1.41968279       1.08292724       3.37936127       0.34765218       0.44905561      -5.72529157
B        1.62406716       0.40349747       0.55746114       2.49064603       0.60567514      -6.59257048
B        1.27727299       1.02643952       4.85516893       0.20405498       0.67028968       4.10484785
B        1.48345859       0.19062594       1.93088289      -0.25654083      -1.16140210      10.25774896
B        0.68663690       0.42149002       7.73153302      -2.05655489      -0.28129243       2.81173346
14
Lattice="4.72814 0.0 0.0 1.360158763657076 4.5282751680134075 0.0 1.360158763657076 1.0116410828571931 4.413825814044136" Properties=species:S:1:pos:R:3:REF_forces:R:3 config_type=buildcell buildcell_config_i=7188 RSS_min_vol_per_atom=4.1 buildcell_type=wide_even gap_rss_group=ALL gap_rss_iter=0 buildcell_symmetry="1 P1 P 1 @ 0.01" vasp_rundir=run_iter_0/run_VASP_h4w1kn3y REF_energy=-74.67843024 REF_stress="-0.36040059411906755 -0.15084333342682615 -0.1866203386370123 0.05202693407071342 0.005430916165569354 0.07359352010212532" pbc="T T T"
B        4.38438917       1.69687971       0.31994007       1.36428231       0.65939631       0.92740829
B        3.03767704       1.04282716       3.48645088       3.06717757       1.51252798       1.73178689
B        2.00913682       4.04673308       1.56351503       3.70974501       0.78657248       0.55628227
B        3.16799578       4.86267159       2.75679037      -2.58969042      -0.61974699      -1.70125558
B        4.58727970       1.68922898       3.98616282      -1.20927862      -0.81620503      -2.29046254
B        5.54101323       2.98195703       0.93538597      -6.79986654       2.14518381       0.32676998
B        4.65392674       4.14675243       4.39711136       2.57818300      -0.88797589       2.02485507
B        5.44907739       4.88948099       2.13488187       0.51366536       2.62269284       0.60319354
B        6.19593846       3.08781318       3.11491233      11.14425461      -2.37515372       1.88350753
B        2.74129818       0.37877736       1.15464475      -1.48047906      -2.43478923      -0.71535650
B        1.91663185       2.41451837       0.16192961       0.18607442      -1.65024595      -5.06028624
B        1.09230970       1.78643956       2.01438476      -4.50834807      -0.83724513       1.65380228
B        4.92193715       3.44927240       2.77145848      -9.57827732       0.70567512      -1.93946076
B        2.56709286       1.96852350       1.52668556       3.60255776       1.18931339       1.99921576
16
Lattice="3.59928 0.0 0.0 -1.7996413632768584 3.7605432059721124 0.0 0.0 0.0 11.74405" Properties=species:S:1:pos:R:3:REF_forces:R:3 config_type=buildcell buildcell_config_i=7500 RSS_min_vol_per_atom=4.1 buildcell_type=wide_even gap_rss_group=ALL gap_rss_iter=0 buildcell_symmetry="1 P1 P 1 @ 0.01" vasp_rundir=run_iter_0/run_VASP_y3wv5_l_ REF_energy=-70.13835578 REF_stress="-0.4913238514596106 -0.5679471486580814 -0.547446520878605 -0.0030028975754231653 -0.03222229624360775 -0.013521999041018588" pbc="T T T"
B        0.19907063       1.13138984       0.79973382      -6.60034899      -4.92187976      -6.17441575
B        0.00290240       2.59191160       0.71155127      -0.38412824       2.05707480      -3.77133968
B        0.30731961       2.69207041      10.96213760      -6.59612669       4.24962505      -0.02048482
B       -0.09514368       1.09887450      10.96251206       1.50488498      -0.37143789       2.29487819
B        1.67443564       2.42399891      10.83659325       6.75294854       4.67407280      -3.09989911
B        1.89281047       1.04393316      11.04050977       1.46107697      -6.53110039       7.97236190
B        1.55943790       1.00398590       0.88152984       4.81407736       2.69656104     -10.18273735
B        1.92646070       2.62207975       0.59249014      -1.34734552       1.47724657       0.95111699
B       -0.20426011       3.02163649       9.47703904       4.55359837      -6.59761407      -3.47275360
B        0.18739028       0.68993511       9.56296902      -7.07797968       3.33699421      -6.74300813
B       -0.20999168       0.93522679       2.15056188       3.53049588       4.57657696       6.88052471
B        0.04404857       3.09279872       2.02982724      -5.49610447     -18.77732615       8.25452887
B        1.97034684       0.55403196       2.01909300       3.25869247      13.57387820      15.05179472
B        1.66950428       3.08439089       2.16904843       0.95089516      -1.05596875       1.37663093
B        1.93789483       2.98043386       9.44428619      -6.27771159      -4.56439551      -4.69838347
B        1.57783456       0.70393510       9.69785062       6.95307546       6.17769289      -4.61881440
22
Lattice="4.11509 0.0 0.0 -2.0575449999999993 3.563772478859306 0.0 0.0 0.0 10.27849" Properties=species:S:1:pos:R:3:REF_forces:R:3 config_type=buildcell buildcell_config_i=7750 RSS_min_vol_per_atom=4.1 buildcell_type=wide_even gap_rss_group=ALL gap_rss_iter=0 buildcell_symmetry="1 P1 P 1 @ 0.01" vasp_rundir=run_iter_0/run_VASP_h1tpon1z REF_energy=-111.05448233 REF_stress="-0.8846138171160612 -0.8637387757905299 -0.42719798133631587 0.03586706966882736 -0.01848379507947942 0.0363178007122247" pbc="T T T"
B        3.33885730       0.28243390       6.70231345      -2.49128148       2.18389186       2.30623474
B        0.82182401       0.54370845       6.61413090      -3.09261115       5.04635320       6.63932083
B        2.37184937       2.77713184       6.59059716      -6.56535863      -3.19608394       1.68450990
B       -1.33376797       2.95030693       3.59437243       0.59222262      -6.65405846      -2.57560286
B        0.18057932       0.67205609       3.46845362      -0.82801254      10.76062063      -1.14230417
B        1.17541213       3.16622904       3.67237013       1.44690839       1.14308559      -4.89033880
B        2.79288930       1.30725925       3.21979536       5.99250687       2.20010732      -3.82589154
B        1.84755033       0.34893022       2.93075566      -5.42797254      -7.66155956      -2.70790484
B        1.36437707       1.78419772       2.95813112      -1.31507007       0.89481494      -3.05268212
B       -0.14984724       3.16153121       7.17609015      -2.48122901      16.81500141       4.15283125
B       -0.69890032       1.97589484       7.20390980      -3.59602828     -14.63039258       7.26146850
B        0.72037561       2.19753735       7.08317516      12.96614478      -7.85728762       0.72801602
B        1.37735870       1.50052696       5.73177430      -2.36237550      11.63365186      -1.15126668
B        2.86820183       1.61463264       5.88172973      -0.01325283      -5.81598957      -5.10220273
B        1.95608212       0.29638215       5.71674070       7.21037730      -5.33532037      -1.26513680
B        0.71898629       1.97692262       4.51960932       5.96200351      -7.49786213      -1.44842603
B       -0.05553622       3.06097594       4.44630550      -5.57287854      10.30893635       1.99984785
B       -0.73958089       1.79958630       4.47506473      -0.45245796      -2.34301453       2.32278079
B        2.71818862       0.09312801      -0.08392175     -14.75010656       0.49562038      -2.30372084