31
Lattice="50.0 0.0 0.0 0.0 50.0 0.0 0.0 0.0 50.0" Properties=species:S:1:pos:R:3:momenta:R:3:cur_leverage_score:R:1:dft_forces:R:3:mace_forces:R:3 config_type=md compound=1885350397 mol_or_rad=rad rad_num=20 graph_name=1885350397_rad20 iter_no=10 minim_config_type=minim_last_converged minim_n_steps=162 dataset_type=train MD_time_fs=100.0 dft_energy=-14772.167725406116 dft_dipole="1.078234261819253 -0.0285183951760025 0.4502195487990483" mace_energy=-14772.131198804502 pbc="F F F"
C        6.18912742      -1.19591508       0.41356417       0.34691777      -0.65774772       0.52079763       0.00000000      -0.15672490      -0.47911176       1.53202056      -0.10186822      -0.47377249       1.54091162
C        4.75452893      -1.53512194       0.46084792       0.32096773      -0.61523617      -0.20966546       0.00000000      -0.32292419      -0.80872247      -0.53792162      -0.27675095      -0.78296710      -0.54716063
C        3.81571059      -0.69412994      -0.05912440       0.71858278      -0.26875022      -1.36402325       0.00000000      -1.48092490       1.46007656       0.13671642      -1.53973211       1.47244192       0.15210154
C        2.42295840      -0.77939222       0.06643820      -0.33520666       0.27850017       0.14405306       0.00000000       0.66376074       0.03743077      -0.38402530       0.72324925       0.01500808      -0.44648126
C        1.53920830       0.21042809      -0.59941445       0.43721234      -0.66865195       0.48137124       0.00000000      -0.17448393      -0.51689524       0.12967432      -0.27034700      -0.50610902       0.17185422
C        0.06856550       0.13313265      -0.24031157      -0.41505476       0.41232487      -0.14177575       0.00000000      -1.40286172       0.89597618      -0.27411308      -1.40281785       0.90499744      -0.29824251
C       -0.66174968       1.19628069      -1.06945847      -0.55624234       0.15318959      -0.12167156       0.00000000       0.30949647       0.06411242       0.37737614       0.28490641       0.03542401       0.42564564
C       -1.94615152       1.56191394      -1.23296923       0.66234494      -0.62789013       0.04419609       0.00000000      -1.65225855      -0.93626208       0.28191204      -1.58900651      -0.93266148       0.23665363
C       -3.16264123       0.95428180      -0.55987534      -1.89114992       0.03963774       0.79884131       0.00000000       2.53867410      -0.08736074      -1.01552916       2.46092506      -0.14667307      -0.93515290
C       -2.94977604      -0.06210717       0.37527854      -0.41605347       1.14887575       0.26847802       0.00000000      -3.16122342       0.12429867       1.70119827      -3.08622873       0.16229284       1.66312407
C       -4.12796358      -0.46089788       1.10927869      -0.45550174       0.02919184       0.46088693       0.00000000       3.66010359      -0.40987417      -0.97114951       3.64057524      -0.42498641      -0.93858029
C       -5.38046635      -0.03275401       0.78908131      -0.83263450      -0.81985401      -0.17506797       0.00000000      -2.68851712       0.56195104       1.30113983      -2.68087467       0.58571082       1.25892314
C       -5.64970394       0.87434375      -0.24426166       1.50518414      -0.24238988       0.32680080       0.00000000       2.88104604       1.28450818      -1.00507743       2.84277754       1.25550525      -0.99763239
C       -4.45628587       1.37701122      -0.88559549       0.65806802       1.18365316      -0.19125867       0.00000000      -1.71742850      -0.01282069      -0.65957251      -1.71314813       0.00983496      -0.67129258
H        6.47746244      -0.36374683      -0.21807578       0.00190623      -0.00058543       0.15531541       0.00014426       0.07188598       0.29089157      -0.52280220       0.04476351       0.27971830      -0.51660935
H        6.80875780      -2.06053108       0.33698041       0.07040224      -0.12210933      -0.34970665       0.00000000       0.82004098      -1.23028617      -1.25386610       0.80163641      -1.23326432      -1.25495915
H        6.52093486      -0.99132016       1.43135026      -0.24249985       0.31504811       0.02410297       0.00000000       0.03874302       0.95504823       0.84716193       0.00728452       0.93999161       0.83630740
H        4.38163289      -2.52729205       0.83440922       0.08887137      -0.13750314      -0.08542947       0.00000000       0.57958225       0.73427338       0.00317298       0.59271146       0.75995782       0.00850045
H        4.07624484       0.29256334      -0.50411874       0.07446187       0.25019808       0.10534424       0.00000000       0.63586004      -0.52409740       0.01871871       0.64701489      -0.54116889       0.03239621
H        1.97303389      -1.62171068       0.55045834       0.16003408       0.09108730      -0.03506812       0.00000000      -0.38885407      -0.83744945       0.46740356      -0.42360514      -0.82958142       0.47159237
H        1.63644654       0.06485030      -1.69745729       0.08535941       0.08124881      -0.04159957       0.00000000      -0.02833208       0.30941509      -0.01537648      -0.01221468       0.28434736      -0.01861582
H        1.85601462       1.23027349      -0.34615014      -0.09554460      -0.10108299      -0.00913674       0.00000000       0.34008729       0.32634605      -0.22498024       0.37850964       0.32727810      -0.21444753
H       -0.39978267      -0.84581048      -0.43006059      -0.12231380      -0.07686169       0.12318158       0.00000000       0.27320006      -0.25585200       0.00864654       0.27257968      -0.24043064      -0.00206166
H       -0.12430188       0.37905904       0.82403714      -0.06670282      -0.16285155      -0.23110721       0.00000000       0.34807446      -0.26226492       0.08687331       0.33572692      -0.23596269       0.07441304
H        0.08585282       1.82396834      -1.52995114       0.09205126       0.01401703      -0.23351596       0.00000000       0.12441155       0.51026681      -0.81940545       0.16067091       0.49244258      -0.82850042
H       -2.23369375       2.30877795      -1.98540624       0.20938385      -0.05875361      -0.05551430       0.00000000       0.45442042       0.29873030       0.18323033       0.44710963       0.31794726       0.19308095
H       -2.01831016      -0.43865895       0.78294254      -0.10845074       0.02273048       0.06009012       0.00000000       0.21926538       0.18492887      -0.46627846       0.22511917       0.18642535      -0.47596262
H       -3.83200986      -1.11220801       1.92979496       0.00460830      -0.00320457      -0.13137017       0.00000000      -0.92959936      -0.28568928       0.42750649      -0.93667941      -0.28335224       0.43101012
H       -6.17195532      -0.24555794       1.53980316       0.10774663       0.25962849      -0.08046499       0.00000000       0.03502212      -0.28469407      -0.60665984       0.03765717      -0.28983908      -0.60370364
H       -6.58689738       1.38840865      -0.53562550       0.05720494       0.23425409       0.10073934       0.00000000       0.09484745      -0.79546103       0.47741794       0.11618105      -0.79809815       0.47799368
H       -4.55666770       2.09093054      -1.74446439      -0.06395269       0.04988688      -0.15782292       0.00000000       0.01919996      -0.31084953       0.76674024       0.01387494      -0.31045667       0.77489466
40
Lattice="50.0 0.0 0.0 0.0 50.0 0.0 0.0 0.0 50.0" Properties=species:S:1:pos:R:3:momenta:R:3:cur_leverage_score:R:1:dft_forces:R:3:mace_forces:R:3 config_type=md compound=107635317 mol_or_rad=rad rad_num=38 graph_name=107635317_rad38 iter_no=5 minim_config_type=minim_last_converged minim_n_steps=131 dataset_type=train MD_time_fs=500.0 dft_energy=-17974.47611284835 dft_dipole="-0.22443621159010876 0.5082222028022905 -0.38202449152880347" mace_energy=-17974.477529462183 pbc="F F F"
C        6.79181772      -0.71414910      -0.71644216       0.19178992       1.11391855       0.16471380       0.00000000       0.44987215       1.36970423       0.76268346       0.43869802       1.36463058       0.75164479
C        5.53416568       0.08431323      -1.18120672      -0.89501129       0.65021612       0.31625771       0.00000000       2.52115696       1.31832626      -0.76614976       2.55016836       1.34269808      -0.75379096
C        4.35090062      -0.56513726      -0.76798448       0.15161174       0.48779865       0.19202807       0.00000000      -3.95654001      -1.06589470       0.19557613      -3.96248709      -1.05615397       0.21649551
C        3.18796732      -0.96076132      -0.62742033       0.16045757      -0.45951679       0.02501835       0.00000000       1.87270235       0.89370261      -0.22498784       1.88944249       0.88772394      -0.22753352
C        1.71643492      -1.03587288      -0.52786937      -0.22041437       0.04994709      -0.30276825       0.00000000       1.25613774       0.35078563       2.01537306       1.22170173       0.43553541       1.99605686
C        1.10412819      -1.60958861      -1.80106103       0.73242985      -0.77706701      -1.91987609       0.00000000      -1.34335838      -0.72021834       0.28196704      -1.29326203      -0.67465880       0.27847301
C        1.25119459       0.45637161      -0.16590580       0.29947190       0.33405499       0.12735583       0.00000000      -1.50906430      -0.64083411      -1.77445486      -1.54455702      -0.70732485      -1.75330574
C        1.51812649       1.35340897      -1.45630953      -0.46591656      -0.07378111      -0.06796444       0.00000000      -0.17967974       0.53664387       3.58697407      -0.20604140       0.49864147       3.62305332
C       -0.25698608       0.43931150       0.29336052       0.05493718       0.70637790      -0.80135006       0.00000000      -0.36792571       1.48660880      -0.97808622      -0.32183473       1.50978175      -1.00756564
C       -0.61040817       0.36344196       1.65482394       0.80966914       0.36829760       0.13625221       0.00000000       4.21054646      -1.29313024       0.45756624       4.22698129      -1.27641772       0.45594957
C       -1.84096484       0.20794037       2.16719382       0.10567301      -0.68698154       0.92766716       0.00000000      -3.21136002       1.10884135      -0.68621557      -3.21187982       1.11359880      -0.69184056
C       -2.97031556       0.38815237       1.21960152      -0.46516872      -0.57348374       0.22935506       0.00000000       2.25160866      -0.64212721       1.97264009       2.20853778      -0.70810658       2.00741639
C       -4.33249141       0.15734238       1.73573295       0.20919260      -1.14055528      -0.19181074       0.00000000      -0.86432672       2.22304088       2.05562413      -0.87614336       2.28460910       2.07423627
C       -5.44637352      -0.06067638       0.74369404       0.17048912       0.87686936      -0.54022494       0.00000000      -1.83256036      -0.47052026      -1.41574505      -1.86871021      -0.45604725      -1.43330919
C       -4.74026556       1.37290690       2.67509120       0.37157451      -0.20880563       0.20013348       0.00000000      -1.41756137      -1.21991765      -3.08194892      -1.40912301      -1.25864113      -3.10690638
C       -2.68810649       0.72901902      -0.08148712      -0.49496385      -0.58176299       2.23850488       0.00000000      -0.05792304       0.23760958      -0.18622639      -0.12019160       0.24644166      -0.13753112
C       -1.35168846       0.73360757      -0.55132654      -0.19547083      -0.27971707       0.34449448       0.00000000       0.01511763      -0.70345559       1.22525362       0.10069819      -0.69859032       1.22010248
H        6.81660424      -1.67679687      -1.20310690       0.08041048      -0.24617958      -0.20758848       0.00000000      -0.19687959      -0.90336020      -0.05473871      -0.20455411      -0.89788029      -0.04518859
H        7.77889804      -0.26109908      -0.91786827       0.16258589      -0.06695336      -0.18951670       0.00000000      -0.18996051       0.47188014      -0.53995529      -0.22774128       0.47638242      -0.54698624
H        6.82799021      -0.78923528       0.38731023      -0.05076551       0.06876545      -0.19313987       0.00000000      -0.40694578      -0.46412421      -0.06724275      -0.42462128      -0.46613805      -0.07519379
H        5.58288031       0.11571698      -2.31459275       0.26150736       0.08364410      -0.03046496       0.00000000      -0.19615802       0.11783893       0.74475718      -0.20704277       0.11135314       0.74891087
H        5.52848005       1.19844428      -0.84098264      -0.24718179      -0.02784374       0.10272268       0.00000000       0.20990602      -1.52150853      -0.28593491       0.19061599      -1.54376350      -0.29030789
H        1.50065617      -1.72982953       0.38352150       0.01011885      -0.07893021       0.10699571       0.00000000      -0.15125014       0.87962942      -1.37760468      -0.12229243       0.88476238      -1.37434008
H        1.19875211      -1.01772669      -2.76851483      -0.33991343       0.02465156      -0.03968154       0.00000000       0.39248825      -0.55349423       1.12904259       0.37691776      -0.58797996       1.12341424
H       -0.00856339      -1.65836857      -1.56325571      -0.14546946       0.15220492      -0.06802164       0.00000000       0.83038339      -0.35312301      -0.58488028       0.82611989      -0.34858193      -0.57553745
H        1.54552845      -2.65031161      -1.88005429      -0.16905587      -0.12422535      -0.18687818       0.00000000      -0.65502728       0.78222535      -0.45715542      -0.67144843       0.77327582      -0.46684787
H        1.87674591       0.93170075       0.62155837      -0.14741981      -0.06934520       0.16822044       0.00000000      -0.26625474      -0.65158090      -0.03687686      -0.26996064      -0.66386301      -0.06549447
H        2.60270280       1.53331542      -1.49694111      -0.15044173       0.06087467       0.07120476       0.00000000      -0.17929666       0.40079021      -0.31349648      -0.16284220       0.40172618      -0.30613949
H        1.10208345       1.11567162      -2.37481817       0.43951903       0.19950179      -0.03697748       0.00000000      -0.57829956      -1.81694300      -2.27706550      -0.56193633      -1.81191783      -2.26378719
H        0.87435802       2.21281073      -1.28337051      -0.07066684       0.29704999      -0.13539795       0.00000000       0.58622715       1.30065889       0.45522821       0.60140603       1.31341163       0.44173034
H        0.29647362       0.22582934       2.31015328      -0.19251984      -0.04949476      -0.03407002       0.00000000      -0.84245455       0.29289246      -0.06846848      -0.84492451       0.30064362      -0.07395394
H       -1.98624505       0.19810002       3.27920018      -0.03957370      -0.23136468       0.05015783       0.00000000      -0.13109982      -0.40137906      -0.92737863      -0.13795847      -0.39575523      -0.94114114
H       -4.25221451      -0.65753941       2.44661821      -0.09148070       0.10081420      -0.14912166       0.00000000      -0.15076333      -0.92537153       0.12295714      -0.15405029      -0.92898453       0.13661088
H       -6.42717454       0.09536933       1.30905495      -0.30143951      -0.01810830       0.24997288       0.00000000       0.83319747      -0.31627261      -0.72284241       0.86482482      -0.30809127      -0.69669464
H       -5.48560373      -1.14480493       0.30501873       0.22478562       0.38779885      -0.30723047       0.00000000       0.26561065       1.72597368       0.51439226       0.27361406       1.72903962       0.51227720
H       -5.47006226       0.71629562      -0.14096332      -0.42132015      -0.22547075      -0.51065168       0.00000000       0.13827370      -1.33778944       1.48999359       0.15613269      -1.34845139       1.45815914
H       -4.20605874       1.78199381       3.47347572       0.15854727      -0.10199205       0.19035841       0.00000000       1.40428360       0.39401863       1.54708466       1.43269331       0.38928119       1.54488453
H       -5.52816423       2.00781268       2.23767043       0.19394888      -0.22159578      -0.01434281       0.00000000       0.08488778       0.08238873       0.23681150       0.06193139       0.06405618       0.24735910
H       -3.57808653       1.03491213      -0.67680114       0.15880415       0.23864311      -0.12128915       0.00000000       0.94234983      -0.40769729      -0.26494193       0.96494632      -0.38791473      -0.29425134
H       -1.22039587       0.87150401      -1.58416809       0.15666989       0.04174602       0.20695336       0.00032216       0.42021629       0.43209607      -1.70184843       0.41817287       0.39766939      -1.70912726
39
Lattice="50.0 0.0 0.0 0.0 50.0 0.0 0.0 0.0 50.0" Properties=species:S:1:pos:R:3:leverage_score:R:1:dft_forces:R:3:mace_forces:R:3 config_type=normal_mode_sample compound=85756802 mol_or_rad=mol rad_num=mol graph_name=85756802_mol dft_energy=-15922.195701914106 dft_dipole="-0.4182697959147033 0.38937013877110715 0.338535209758625" dataset_type=train iter_no=0 mace_energy=-15922.208279756735 pbc="F F F"
C       -1.59447417      -2.72788577       0.13937063       0.00000000      -0.29638249       0.66981090       0.03752133      -0.24675897       0.64050458       0.00211566
C       -1.84400130      -1.48653109       0.57186148       0.00000000       1.93700524      -0.26210863       0.87588667       1.88401367      -0.31717068       0.86028806
C       -3.13805676      -0.95848920       1.10888594       0.00000000       0.08187683      -0.68548115       0.10773657       0.06648064      -0.69161456       0.13351735
C       -3.14956843       0.52696146       0.89326114       0.00000000      -0.76392352       0.70568528      -0.44350296      -0.75196858       0.68439523      -0.47621826
C       -2.50972814       0.93051404      -0.46072972       0.00000000      -0.04730386      -0.44781063       1.51026761      -0.08890752      -0.37512672       1.52546586
C       -0.94157906       0.67198366      -0.31788898       0.00000000      -2.06275145       1.74971338      -2.37092382      -2.03232278       1.78738233      -2.40287192
C       -0.58073899       0.26117773      -1.79472054       0.00000000       0.99488603      -2.37610492       1.73570759       1.05405698      -2.35188575       1.80646435
C       -0.21192545       1.98115521       0.02035340       0.00000000       3.39696248      -2.03738752      -1.03399156       3.38039270      -2.04374304      -0.99119629
C        1.04223064       1.57318197       0.83267284       0.00001543       0.02737987      -2.08189319       0.73295397      -0.02319569      -2.09074507       0.69301538
C        1.67312251       0.24431777       0.35660168       0.00000000      -2.42746163      -0.16153664       0.44796097      -2.46280400      -0.14104230       0.50762388
C        2.84760504      -0.00791576      -0.18690214       0.00000000       1.91606976       3.07153284       0.34295618       1.92463050       3.10748008       0.34414329
C        3.30120413      -1.34473565      -0.58075778       0.00000000       0.60529427       0.55550914      -1.51026976       0.57353472       0.53209924      -1.55207259
C        3.80705706       1.17956303      -0.36331729       0.00000000       1.08419101       1.97021110      -1.57962259       1.11493238       1.96921554      -1.57811843
C        0.74069779      -0.94486180       0.49651100       0.00000000      -0.47641790       0.10676637      -0.12992374      -0.41733485       0.01559056      -0.12918487
C       -0.69637101      -0.45476736       0.68352456       0.00000000      -0.04736076      -1.92067760      -2.57988550      -0.03156687      -1.90943084      -2.62247927
H       -2.43944861      -3.40775342       0.07247868       0.00000000       0.05199641      -0.65358209      -0.13502405       0.04549441      -0.64419445      -0.12107546
H       -0.56963483      -2.98587245      -0.15444065       0.00000000      -0.35487813      -0.42637735      -0.11154109      -0.36533216      -0.39051058      -0.11851090
H       -3.37799006      -1.24620811       2.17017760       0.00000000       0.57817751       0.19365699      -0.37097843       0.57373238       0.18417942      -0.36424898
H       -3.94659792      -1.40688768       0.54728953       0.00000000      -0.64870836      -0.34971786      -0.50147201      -0.65870053      -0.34711699      -0.50775231
H       -2.59317063       1.03757152       1.71716448       0.00000000      -0.56683978       0.10166471      -0.32750502      -0.55987809       0.11057545      -0.30521148
H       -4.21016188       0.82212506       0.84908827       0.00000000      -0.00886787       0.50464341       0.53133839      -0.00382583       0.48864895       0.52650628
H       -2.87164873       1.95938234      -0.60643713       0.00000000       0.85937322       0.41601442      -0.31066950       0.83307657       0.42980062      -0.30542060
H       -2.94067038       0.36947010      -1.31795124       0.00000000       0.06978572      -0.19039860       0.43167165       0.07609979      -0.18986237       0.42046684
H       -1.07965023      -0.73709272      -1.87308567       0.00000000      -0.10530989       0.56589999      -0.78441119      -0.12981011       0.50866149      -0.76564746
H       -0.95900784       1.01306975      -2.45315497       0.00000000      -0.42596846       0.55834055      -0.92310810      -0.44271691       0.54577096      -0.97021353
H        0.49459299       0.01244943      -2.02912679       0.00000000      -0.52380516       0.73702220       0.36155611      -0.54208082       0.73435600       0.32426501
H        0.26616204       2.37207206      -0.91446697       0.00000000      -0.69370142       0.03305358       0.19728548      -0.64900053       0.02118343       0.20720834
H       -0.68699659       2.79942881       0.47059579       0.00000000      -1.52599433       1.19090906       1.08713087      -1.53206000       1.19644316       1.07348986
H        1.79123426       2.30191848       0.81159020       0.00000000       1.16259217       1.74264304      -0.05710346       1.18327561       1.75115468      -0.05588126
H        0.86551410       1.39189734       1.92335508       0.00000000      -0.44624281       0.29974112      -0.34331774      -0.42145388       0.32011719      -0.32889482
H        4.26523012      -1.20192772      -1.11680913       0.00000000       0.05950122      -0.70763912       0.53915020       0.04802327      -0.71134042       0.54698190
H        3.28828627      -2.03324028       0.24712385       0.00000000       0.50168222      -0.74237178       0.60618117       0.51608430      -0.72623338       0.62010791
H        2.61886865      -1.73464143      -1.33155227       0.00000000      -0.41240179      -0.50787180      -0.45589731      -0.37458168      -0.49592770      -0.43838540
H        4.91909423       1.00364771      -0.01663466       0.00000000      -1.86685530       0.06537066      -0.50176251      -1.89274363       0.06810896      -0.52124580
H        3.89858073       1.53015739      -1.56505241       0.00000000      -0.17158565      -0.97426567       2.78879438      -0.15874255      -0.97397253       2.78491709
H        3.41506050       2.15137566       0.18578665       0.00000000       0.93373235      -1.86822290      -1.02438734       0.93126325      -1.89463038      -1.02010380
H        1.09333220      -1.55794148       1.35320515       0.00000000      -0.30721174      -0.23168103      -0.19191431      -0.31612512      -0.21825461      -0.21321286
H        0.75773765      -1.54371177      -0.43408393       0.00000000       0.32283634      -0.13622998       0.35657655       0.26769704      -0.13746336       0.38903454
H       -0.73278526      -0.12780639       1.65058479       0.00000000      -0.40114510       1.51208644       2.99498254      -0.37087715       1.55459786       3.02233469
38
Lattice="50.0 0.0 0.0 0.0 50.0 0.0 0.0 0.0 50.0" Properties=species:S:1:pos:R:3:momenta:R:3:cur_leverage_score:R:1:dft_forces:R:3:mace_forces:R:3 config_type=md compound=1893794187 mol_or_rad=rad rad_num=29 graph_name=1893794187_rad29 iter_no=5 minim_config_type=minim_last_converged minim_n_steps=226 dataset_type=train MD_time_fs=100.0 dft_energy=-13865.927414504838 dft_dipole="0.1976207865360244 0.24898948230313767 0.6491112085603847" mace_energy=-13865.892769576054 pbc="F F F"
C        3.09397952      -0.33614529      -1.82552688       0.01661640      -0.66880824      -0.34869558       0.00000000       1.60026801      -1.28011683       2.41887170       1.57625736      -1.26332567       2.40514071
C        3.61649500      -1.07625625      -0.75769250       0.38720928       0.20358808       0.52713956       0.00000000      -1.47512346       1.51355432      -2.78169067      -1.47767753       1.50074898      -2.78309810
C        3.30568046      -0.91860298       0.67754980       0.83395595       0.00488517      -0.37004252       0.00000000       0.33624561       0.03270971       2.29954175       0.30405674       0.06401106       2.28775529
C        1.83815707      -0.54243163       1.13463042      -0.37429190      -0.88648328      -0.08926864       0.00000000       0.30983485      -0.59757161      -3.55435552       0.34995049      -0.59766780      -3.53234966
C        0.69485622      -1.41261761       0.45147568      -0.74222047       0.09193352      -0.29501020       0.00000000       1.94802932       0.22410621       0.39060222       2.08635960       0.16958110       0.45334258
C        0.75635039      -2.83617809       1.02727397      -1.13408090      -0.34364896       0.48028982       0.00000000       0.44945619      -0.12849735      -0.31181495       0.42043740      -0.14289092      -0.31495744
C       -0.68159904      -0.94370443       0.80641009       0.01268391      -0.41939433      -0.15498615       0.00000000      -1.70726318      -0.11051716      -1.92387082      -1.73955520      -0.10017430      -1.97008493
C       -1.01620297       0.53204112       0.48862578       0.28745230      -0.16717069       0.22878418       0.00000000       0.34749737       0.79902263      -0.32667157       0.38193892       0.80214455      -0.30564602
C       -0.36481665       1.04670724      -0.84208976       0.30618773      -0.51285416       0.25656156       0.00000000       0.21908056      -2.48687671       0.25179379       0.17041919      -2.47559968       0.25471580
C       -0.78406827       0.13753083      -1.97565381       0.18392071      -0.31347382      -0.47063387       0.00029244      -2.29342475      -0.67335557      -0.47557282      -2.25630893      -0.72386090      -0.40291112
C       -2.54285783       0.76439649       0.46045248       0.89803106       0.77614128       1.08460997       0.00000000      -0.59044385      -0.40629192       0.42611252      -0.59837399      -0.40872494       0.43689365
C       -3.21642919       2.17948562       0.20412162      -0.24264580       0.76716079      -0.22459562       0.00000000       0.41471566      -1.34174713      -1.57480293       0.42073261      -1.33918282      -1.54778174
C       -2.64510230       3.33668297       1.04083538      -0.14525797       0.86036403      -0.19863667       0.00000000      -0.64121966      -0.55998402      -0.76699040      -0.63824220      -0.56324854      -0.77798468
H        2.55950156       0.63823570      -1.70314007      -0.00771406      -0.20516239       0.00536912       0.00000000      -0.01733436      -0.94160961      -0.22032835      -0.00589857      -0.95972545      -0.18495521
H        3.40704598      -0.72982629      -2.79655697      -0.00126106      -0.05476479       0.09313836       0.00000000      -0.14666884       0.61299603      -0.38289927      -0.15129977       0.61227552      -0.37384693
H        4.34030248      -1.85903308      -1.03148580       0.22019443       0.22594573       0.13438918       0.00000000      -0.30199514      -0.15992992       0.06786575      -0.28834981      -0.17296750       0.06000548
H        3.70698786      -1.81988540       1.24302043      -0.02238305      -0.12595124       0.04815367       0.00000000      -0.54482750       0.63436967      -0.46771794      -0.56643759       0.63400998      -0.46355390
H        3.92877561      -0.07175500       1.07212227      -0.12682780       0.02839136      -0.04942702       0.00000000      -0.04130668      -0.34590563      -0.04928300      -0.03992531      -0.34410127      -0.03389630
H        1.72470609      -0.55892671       2.18093836       0.25653112      -0.02348287       0.18634018       0.00000000       0.02492517      -0.36321908       1.92904351       0.02232159      -0.35789628       1.90547448
H        1.75646408       0.51117947       0.86231348      -0.27388782      -0.06081121      -0.41439254       0.00000000      -0.38845602       0.37507053      -0.13267482      -0.36940616       0.38038172      -0.12315398
H        0.77193272      -1.41828614      -0.69336919       0.06162247      -0.01341473      -0.07074787       0.00000000       0.35954964      -0.06950615       1.41499580       0.33688409      -0.08791390       1.36422849
H        0.00543929      -3.33501598       0.44237002      -0.25645703       0.00255573      -0.02408336       0.00000000      -0.63147818      -1.19680946      -0.27354041      -0.63804188      -1.21260661      -0.28160344
H        1.70395631      -3.40308962       0.94554552      -0.03316315      -0.18157393       0.20567574       0.00000000       0.05239855       0.31593264      -0.25523540       0.06726164       0.34477878      -0.24926921
H        0.44548571      -2.89894964       2.08948618      -0.23104512       0.07949608       0.00572974       0.00000000       0.06047993       0.27694260      -0.09340500       0.05433634       0.29028385      -0.08805460