
                                 *****************
                                 * O   R   C   A *
                                 *****************

           --- An Ab Initio, DFT and Semiempirical electronic structure package ---

                  #######################################################
                  #                        -***-                        #
                  #          Department of theory and spectroscopy      #
                  #               Directorship: Frank Neese             #
                  #        Max Planck Institute fuer Kohlenforschung    #
                  #                Kaiser Wilhelm Platz 1               #
                  #                 D-45470 Muelheim/Ruhr               #
                  #                      Germany                        #
                  #                                                     #
                  #                  All rights reserved                #
                  #                        -***-                        #
                  #######################################################


                         Program Version 4.2.1 -  RELEASE  -


 With contributions from (in alphabetic order):
   Daniel Aravena         : Magnetic Suceptibility
   Michael Atanasov       : Ab Initio Ligand Field Theory (pilot matlab implementation)
   Alexander A. Auer      : GIAO ZORA, VPT2
   Ute Becker             : Parallelization
   Giovanni Bistoni       : ED, misc. LED, open-shell LED, HFLD
   Martin Brehm           : Molecular dynamics
   Dmytro Bykov           : SCF Hessian
   Vijay G. Chilkuri      : MRCI spin determinant printing, contributions to CSF-ICE
   Dipayan Datta          : RHF DLPNO-CCSD density
   Achintya Kumar Dutta   : EOM-CC, STEOM-CC
   Dmitry Ganyushin       : Spin-Orbit,Spin-Spin,Magnetic field MRCI
   Miquel Garcia          : C-PCM Hessian, Gaussian charge scheme
   Yang Guo               : DLPNO-NEVPT2, CIM, IAO-localization
   Andreas Hansen         : Spin unrestricted coupled pair/coupled cluster methods
   Benjamin Helmich-Paris : CASSCF linear response (MC-RPA)
   Lee Huntington         : MR-EOM, pCC
   Robert Izsak           : Overlap fitted RIJCOSX, COSX-SCS-MP3, EOM
   Christian Kollmar      : KDIIS, OOCD, Brueckner-CCSD(T), CCSD density
   Simone Kossmann        : Meta GGA functionals, TD-DFT gradient, OOMP2, MP2 Hessian
   Martin Krupicka        : AUTO-CI
   Lucas Lang             : DCDCAS
   Dagmar Lenk            : GEPOL surface, SMD
   Dimitrios Liakos       : Extrapolation schemes; Compound Job, initial MDCI parallelization
   Dimitrios Manganas     : Further ROCIS development; embedding schemes
   Dimitrios Pantazis     : SARC Basis sets
   Taras Petrenko         : DFT Hessian,TD-DFT gradient, ASA, ECA, R-Raman, ABS, FL, XAS/XES, NRVS
   Peter Pinski           : DLPNO-MP2, DLPNO-MP2 Gradient
   Christoph Reimann      : Effective Core Potentials
   Marius Retegan         : Local ZFS, SOC
   Christoph Riplinger    : Optimizer, TS searches, QM/MM, DLPNO-CCSD(T), (RO)-DLPNO pert. Triples
   Tobias Risthaus        : Range-separated hybrids, TD-DFT gradient, RPA, STAB
   Michael Roemelt        : Original ROCIS implementation
   Masaaki Saitow         : Open-shell DLPNO-CCSD energy and density
   Barbara Sandhoefer     : DKH picture change effects
   Avijit Sen             : IP-ROCIS
   Kantharuban Sivalingam : CASSCF convergence, NEVPT2, FIC-MRCI
   Bernardo de Souza      : ESD, SOC TD-DFT
   Georgi Stoychev        : AutoAux, RI-MP2 NMR
   Willem Van den Heuvel  : Paramagnetic NMR
   Boris Wezisla          : Elementary symmetry handling
   Frank Wennmohs         : Technical directorship


 We gratefully acknowledge several colleagues who have allowed us to
 interface, adapt or use parts of their codes:
   Stefan Grimme, W. Hujo, H. Kruse,             : VdW corrections, initial TS optimization,
                  C. Bannwarth                     DFT functionals, gCP, sTDA/sTD-DF
   Ed Valeev, F. Pavosevic, A. Kumar             : LibInt (2-el integral package), F12 methods
   Garnet Chan, S. Sharma, J. Yang, R. Olivares  : DMRG
   Ulf Ekstrom                                   : XCFun DFT Library
   Mihaly Kallay                                 : mrcc  (arbitrary order and MRCC methods)
   Andreas Klamt, Michael Diedenhofen            : otool_cosmo (COSMO solvation model)
   Jiri Pittner, Ondrej Demel                    : Mk-CCSD
   Frank Weinhold                                : gennbo (NPA and NBO analysis)
   Christopher J. Cramer and Donald G. Truhlar   : smd solvation model
   Lars Goerigk                                  : TD-DFT with DH, B97 family of functionals
   V. Asgeirsson, H. Jonsson                     : NEB implementation
   FAccTs GmbH                                   : IRC, NEB, NEB-TS, Multilevel, MM, QM/MM, CI optimization
   S Lehtola, MJT Oliveira, MAL Marques          : LibXC Library


 Your calculation uses the libint2 library for the computation of 2-el integrals
 For citations please refer to: http://libint.valeyev.net

 Your ORCA version has been built with support for libXC version: 4.2.3
 For citations please refer to: https://tddft.org/programs/libxc/

 This ORCA versions uses:
   CBLAS   interface :  Fast vector & matrix operations
   LAPACKE interface :  Fast linear algebra routines
   SCALAPACK package :  Parallel linear algebra routines


Your calculation utilizes the atom-pairwise dispersion correction
with the Becke-Johnson damping scheme (D3BJ)
Cite in your paper:
S.Grimme, S.Ehrlich, L.Goerigk, J Comput Chem, (2011), 32, 1456–1465 
S.Grimme, J.Antony, S.Ehrlich and H.Krieg, J.Chem.Phys., 132, (2010), 154104 
   

----- Orbital basis set information -----
Your calculation utilizes the basis: def2-SV(P)
   F. Weigend and R. Ahlrichs, Phys. Chem. Chem. Phys. 7, 3297 (2005).

----- AuxJ basis set information -----
Your calculation utilizes the auxiliary basis: def2/J
   F. Weigend, Phys. Chem. Chem. Phys. 8, 1057 (2006).

================================================================================
                                        WARNINGS
                       Please study these warnings very carefully!
================================================================================


WARNING: Geometry Optimization
  ===> : Switching off AutoStart
         For restart on a previous wavefunction, please use MOREAD

INFO   : the flag for use of LIBINT has been found!

================================================================================
                                       INPUT FILE
================================================================================
NAME = orca.inp
|  1> ! opt UKS B3LYP def2-SV(P) def2/J D3BJ 
|  2> %scf Convergence Tight SmearTemp 5000 end 
|  3> *xyz 0 2 
|  4> C   4.78453893943482 -0.27747882641764 -2.36745309882722
|  5> C   3.91896869155961 0.24506021446926 -1.20869728039915
|  6> C   4.7532185309748 0.35893166180576 0.08631032042076
|  7> C   5.35879688772107 -0.93793942395861 0.65944083064416
|  8> C   6.21300844094637 -0.63989216247112 1.86726612297781
|  9> O   7.38282459637761 -0.04738013854856 1.52778284754722
| 10> O   5.91314442443339 -0.85586200206216 3.01584550009377
| 11> C   2.56011548198597 -0.49231466962565 -1.19985215970303
| 12> C   2.53879198021134 -2.04221521340114 -1.06272436657
| 13> C   1.08656164603574 -2.40499091929243 -0.62624791810216
| 14> C   0.33065144820986 -1.06622582796191 -0.67537812937877
| 15> C   -0.997496006924 -0.90240731464156 0.06616074827232
| 16> C   -2.02744314948039 -2.00723382939709 -0.29578226112824
| 17> C   -3.40192546260779 -1.53240879687768 -0.63597557862481
| 18> C   -3.91018732106814 -0.14651793820882 -0.41080672977919
| 19> C   -5.34352597523104 -0.12111056152538 0.16765751821661
| 20> C   -5.7974706530417 1.29193724237178 0.57931037847015
| 21> O   -7.16235516597044 1.42915950000698 0.20336561587052
| 22> C   -4.92721797676136 2.36351514981712 -0.08294840823782
| 23> C   -3.41608503341298 2.2226520676292 0.21321940469338
| 24> C   -2.93861486690158 0.7519456147418 0.3990799065739
| 25> C   -2.95895004829733 0.38355934664391 1.89819887120807
| 26> C   -1.52118822171614 0.53252368704506 -0.19849880889102
| 27> C   -0.4680591191186 1.57240292723705 0.22907723881394
| 28> C   0.88427401234284 1.38134651048706 -0.48293904515079
| 29> O   0.76027574958026 1.59266103101339 -1.88567801561316
| 30> C   1.41664063427383 -0.03972975849944 -0.24915675076403
| 31> C   1.78635926079005 -0.19254316750109 1.24347741391555
| 32> H   5.07386412602298 -1.33382128853468 -2.22433902900724
| 33> H   4.23879896128101 -0.21398093393693 -3.3261574156628
| 34> H   5.71383573778777 0.3123783112866 -2.46590555753835
| 35> H   3.66220692126784 1.29157233455131 -1.45959048098275
| 36> H   5.59202298610086 1.04470633527798 -0.13202093732075
| 37> H   4.16269262501414 0.84596604497474 0.87626796665463
| 38> H   5.98035475180211 -1.43629027873365 -0.10392738959087
| 39> H   4.57876707498114 -1.63554489478218 0.99058431832272
| 40> H   7.85448479343364 0.14462864839485 2.36301823173033
| 41> H   2.15989600366094 -0.27689625943287 -2.20308805937668
| 42> H   3.26749666022863 -2.40544906929836 -0.3233355712472
| 43> H   2.80574090599038 -2.51942618486639 -2.01943197560915
| 44> H   0.6339961162274 -3.16504727539842 -1.28366087860655
| 45> H   1.07409639064924 -2.82163514966585 0.39682707832534
| 46> H   0.11429228397143 -0.85361526615292 -1.73700701479832
| 47> H   -0.7945234171837 -0.9871404869848 1.14622324776394
| 48> H   -1.64622329801511 -2.61942760740759 -1.13883600627435
| 49> H   -2.08014046032427 -2.7302904359895 0.54927773203892
| 50> H   -4.10258866268781 -2.26408450196113 -1.05675065602792
| 51> H   -3.97778812764556 0.33540075685641 -1.41209646510746
| 52> H   -5.42176346228848 -0.81368672334841 1.02241426981637
| 53> H   -6.04995360623029 -0.4804766167855 -0.60026533597142
| 54> H   -5.71240591427378 1.39957084981831 1.68007303142057
| 55> H   -7.46611890264499 2.30907964480825 0.48239090214802
| 56> H   -5.27668120708819 3.36633761289803 0.22846514682393
| 57> H   -5.11094784680456 2.29720242920382 -1.16979931661847
| 58> H   -3.14673453401379 2.81027457461371 1.10897562059526
| 59> H   -2.87293785127358 2.68597345880772 -0.62896459385764
| 60> H   -2.1278835124613 0.87356198889598 2.43479446209319
| 61> H   -3.89041702752696 0.71094246688719 2.38579849894988
| 62> H   -2.87050888743817 -0.70367683343386 2.06007532318501
| 63> H   -1.63137860673018 0.64003752677949 -1.29456618499867
| 64> H   -0.30632147809951 1.53650722393822 1.32003632437054
| 65> H   -0.82669898955274 2.59460817846874 0.01100425343778
| 66> H   1.60923920130983 2.11343503711934 -0.06867475534043
| 67> H   0.34280990290432 2.45759376463705 -2.02843901573571
| 68> H   0.90369365475772 -0.35806053650966 1.87992139305015
| 69> H   2.28745325101 0.71128396108203 1.62561758488468
| 70> H   2.46659804953549 -1.04008574895516 1.41918028751271
| 71> *
| 72> 
| 73>                          ****END OF INPUT****
================================================================================

                       *****************************
                       * Geometry Optimization Run *
                       *****************************

Geometry optimization settings:
Update method            Update   .... BFGS
Choice of coordinates    CoordSys .... Z-matrix Internals
Initial Hessian          InHess   .... Almoef's Model

Convergence Tolerances:
Energy Change            TolE     ....  5.0000e-06 Eh
Max. Gradient            TolMAXG  ....  3.0000e-04 Eh/bohr
RMS Gradient             TolRMSG  ....  1.0000e-04 Eh/bohr
Max. Displacement        TolMAXD  ....  4.0000e-03 bohr
RMS Displacement         TolRMSD  ....  2.0000e-03 bohr
Strict Convergence                ....  False
------------------------------------------------------------------------------
                        ORCA OPTIMIZATION COORDINATE SETUP
------------------------------------------------------------------------------

The optimization will be done in new redundant internal coordinates
Making redundant internal coordinates   ...  (new redundants) done
Evaluating the initial hessian          ...  (Almloef) done
Evaluating the coordinates              ...  done
Calculating the B-matrix                .... done
Calculating the G-matrix                .... done
Diagonalizing the G-matrix              .... done
Small eigenvalue found = 3.906e-03
Small eigenvalue found = 4.654e-03
Small eigenvalue found = 9.492e-03
Small eigenvalue found = 1.566e-02
Small eigenvalue found = 2.381e-02
Small eigenvalue found = 2.932e-02
The first mode is                       ....  258
The number of degrees of freedom        ....  195

    -----------------------------------------------------------------
                    Redundant Internal Coordinates


    -----------------------------------------------------------------
         Definition                    Initial Value    Approx d2E/dq
    -----------------------------------------------------------------
      1. B(C   1,C   0)                  1.5378         0.362959   
      2. B(C   2,C   1)                  1.5447         0.353984   
      3. B(C   3,C   2)                  1.5418         0.357756   
      4. B(C   4,C   3)                  1.5091         0.403403   
      5. B(O   5,C   4)                  1.3545         0.637446   
      6. B(O   6,C   4)                  1.2066         1.097833   
      7. B(C   7,C   1)                  1.5461         0.352180   
      8. B(C   8,C   7)                  1.5561         0.339418   
      9. B(C   9,C   8)                  1.5592         0.335581   
     10. B(C  10,C   9)                  1.5382         0.362469   
     11. B(C  11,C  10)                  1.5299         0.373668   
     12. B(C  12,C  11)                  1.5532         0.343053   
     13. B(C  13,C  12)                  1.4934         0.427259   
     14. B(C  14,C  13)                  1.4932         0.427610   
     15. B(C  15,C  14)                  1.5459         0.352413   
     16. B(C  16,C  15)                  1.5402         0.359830   
     17. B(O  17,C  16)                  1.4223         0.496897   
     18. B(C  18,C  16)                  1.5311         0.372096   
     19. B(C  19,C  18)                  1.5463         0.351846   
     20. B(C  20,C  19)                  1.5574         0.337800   
     21. B(C  20,C  14)                  1.5515         0.345223   
     22. B(C  21,C  20)                  1.5439         0.355040   
     23. B(C  22,C  20)                  1.5538         0.342279   
     24. B(C  22,C  11)                  1.5503         0.346772   
     25. B(C  23,C  22)                  1.5405         0.359392   
     26. B(C  24,C  23)                  1.5402         0.359810   
     27. B(O  25,C  24)                  1.4240         0.493935   
     28. B(C  26,C  24)                  1.5354         0.366205   
     29. B(C  26,C  10)                  1.5539         0.342123   
     30. B(C  26,C   7)                  1.5544         0.341534   
     31. B(C  27,C  26)                  1.5453         0.353136   
     32. B(H  28,C   0)                  1.1046         0.341347   
     33. B(H  29,C   0)                  1.1050         0.340820   
     34. B(H  30,C   0)                  1.1051         0.340685   
     35. B(H  31,C   1)                  1.1064         0.339079   
     36. B(H  32,C   2)                  1.1052         0.340497   
     37. B(H  33,C   2)                  1.1000         0.347137   
     38. B(H  34,C   3)                  1.1034         0.342844   
     39. B(H  35,C   3)                  1.0976         0.350168   
     40. B(H  36,O   5)                  0.9782         0.486261   
     41. B(H  37,C   7)                  1.1014         0.345342   
     42. B(H  38,C   8)                  1.0998         0.347317   
     43. B(H  39,C   8)                  1.1019         0.344641   
     44. B(H  40,C   9)                  1.1021         0.344404   
     45. B(H  41,C   9)                  1.1047         0.341131   
     46. B(H  42,C  10)                  1.1041         0.341903   
     47. B(H  43,C  11)                  1.1022         0.344278   
     48. B(H  44,C  12)                  1.1094         0.335284   
     49. B(H  45,C  12)                  1.1134         0.330408   
     50. B(H  46,C  13)                  1.0970         0.351004   
     51. B(H  47,C  14)                  1.1133         0.330581   
     52. B(H  48,C  15)                  1.1029         0.343431   
     53. B(H  49,C  15)                  1.1036         0.342576   
     54. B(H  50,C  16)                  1.1093         0.335479   
     55. B(H  51,O  17)                  0.9718         0.497906   
     56. B(H  52,C  18)                  1.1067         0.338688   
     57. B(H  53,C  18)                  1.1043         0.341716   
     58. B(H  54,C  19)                  1.1046         0.341245   
     59. B(H  55,C  19)                  1.1041         0.341972   
     60. B(H  56,C  21)                  1.1040         0.342109   
     61. B(H  57,C  21)                  1.1012         0.345629   
     62. B(H  58,C  21)                  1.1028         0.343593   
     63. B(H  59,C  22)                  1.1068         0.338515   
     64. B(H  60,C  23)                  1.1035         0.342718   
     65. B(H  61,C  23)                  1.1050         0.340761   
     66. B(H  62,C  24)                  1.1105         0.334014   
     67. B(H  63,O  25)                  0.9710         0.499434   
     68. B(H  64,C  27)                  1.1007         0.346211   
     69. B(H  65,C  27)                  1.1018         0.344785   
     70. B(H  66,C  27)                  1.1009         0.345998   
     71. A(C   1,C   0,H  28)          112.0093         0.319975   
     72. A(H  29,C   0,H  30)          107.9000         0.285856   
     73. A(H  28,C   0,H  29)          107.2619         0.285943   
     74. A(C   1,C   0,H  29)          110.8692         0.319895   
     75. A(H  28,C   0,H  30)          107.5621         0.285925   
     76. A(C   1,C   0,H  30)          111.0434         0.319874   
     77. A(C   2,C   1,H  31)          104.2249         0.318324   
     78. A(C   0,C   1,C   2)          110.6571         0.358264   
     79. A(C   7,C   1,H  31)          104.3862         0.318059   
     80. A(C   0,C   1,H  31)          106.3291         0.319627   
     81. A(C   0,C   1,C   7)          109.6910         0.357953   
     82. A(C   2,C   1,C   7)          120.3349         0.356433   
     83. A(C   3,C   2,H  32)          107.2928         0.319092   
     84. A(C   3,C   2,H  33)          108.4415         0.320100   
     85. A(H  32,C   2,H  33)          105.9367         0.286651   
     86. A(C   1,C   2,H  32)          106.8590         0.318541   
     87. A(C   1,C   2,H  33)          110.1683         0.319546   
     88. A(C   1,C   2,C   3)          117.5019         0.357386   
     89. A(C   4,C   3,H  35)          106.6380         0.326935   
     90. A(C   2,C   3,C   4)          110.7153         0.365443   
     91. A(H  34,C   3,H  35)          108.7840         0.287349   
     92. A(C   2,C   3,H  34)          110.1206         0.319450   
     93. A(C   2,C   3,H  35)          111.5692         0.320555   
     94. A(C   4,C   3,H  34)          108.9094         0.325799   
     95. A(O   5,C   4,O   6)          122.1077         0.477703   
     96. A(C   3,C   4,O   5)          112.0026         0.401460   
     97. A(C   3,C   4,O   6)          125.8648         0.442372   
     98. A(C   4,O   5,H  36)          106.7543         0.367630   
     99. A(C   8,C   7,C  26)          103.0631         0.352068   
    100. A(C   1,C   7,C   8)          119.1822         0.353902   
    101. A(C   8,C   7,H  37)          105.6701         0.317096   
    102. A(C   1,C   7,C  26)          120.7433         0.354275   
    103. A(C  26,C   7,H  37)          103.4647         0.317417   
    104. A(C   1,C   7,H  37)          102.7609         0.319010   
    105. A(H  38,C   8,H  39)          106.2683         0.287217   
    106. A(C   7,C   8,H  39)          110.5797         0.316991   
    107. A(C   7,C   8,C   9)          105.6151         0.351023   
    108. A(C   9,C   8,H  39)          111.5871         0.316405   
    109. A(C   9,C   8,H  38)          110.6139         0.316804   
    110. A(C   7,C   8,H  38)          112.2785         0.317391   
    111. A(C   8,C   9,C  10)          104.2567         0.354949   
    112. A(C  10,C   9,H  41)          110.6267         0.319872   
    113. A(H  40,C   9,H  41)          106.7192         0.286381   
    114. A(C   8,C   9,H  41)          110.9470         0.315879   
    115. A(C  10,C   9,H  40)          112.2942         0.320371   
    116. A(C   8,C   9,H  40)          112.0819         0.316370   
    117. A(C  11,C  10,H  42)          105.9802         0.321586   
    118. A(C  11,C  10,C  26)          113.7667         0.357959   
    119. A(C   9,C  10,C  26)          102.8693         0.356113   
    120. A(C   9,C  10,C  11)          120.2860         0.361499   
    121. A(C  26,C  10,H  42)          105.8711         0.316989   
    122. A(C   9,C  10,H  42)          107.1337         0.319990   
    123. A(C  12,C  11,C  22)          113.2419         0.353613   
    124. A(C  10,C  11,C  22)          108.0362         0.358782   
    125. A(C  10,C  11,C  12)          112.7395         0.358125   
    126. A(C  22,C  11,H  43)          107.4964         0.318046   
    127. A(C  12,C  11,H  43)          107.2038         0.317487   
    128. A(C  10,C  11,H  43)          107.8694         0.321951   
    129. A(C  11,C  12,C  13)          115.9263         0.366413   
    130. A(C  11,C  12,H  45)          108.4485         0.315370   
    131. A(C  13,C  12,H  45)          109.6210         0.326901   
    132. A(C  13,C  12,H  44)          108.5775         0.327691   
    133. A(C  11,C  12,H  44)          109.9826         0.316122   
    134. A(H  44,C  12,H  45)          103.5716         0.283773   
    135. A(C  12,C  13,C  14)          125.0296         0.380598   
    136. A(C  14,C  13,H  46)          117.3540         0.330224   
    137. A(C  12,C  13,H  46)          117.5912         0.330180   
    138. A(C  20,C  14,H  47)          104.8826         0.315721   
    139. A(C  15,C  14,H  47)          105.8512         0.316781   
    140. A(C  13,C  14,H  47)          106.6670         0.326974   
    141. A(C  15,C  14,C  20)          112.0726         0.354960   
    142. A(C  13,C  14,C  20)          113.7681         0.366861   
    143. A(C  13,C  14,C  15)          112.7854         0.368161   
    144. A(C  16,C  15,H  49)          107.2217         0.319711   
    145. A(C  14,C  15,H  49)          109.1345         0.318626   
    146. A(C  16,C  15,H  48)          110.3693         0.319841   
    147. A(C  14,C  15,H  48)          110.2099         0.318755   
    148. A(C  14,C  15,C  16)          112.8529         0.357467   
    149. A(H  48,C  15,H  49)          106.8215         0.286444   
    150. A(C  18,C  16,H  50)          108.5255         0.320369   
    151. A(C  15,C  16,H  50)          109.3682         0.318620   
    152. A(O  17,C  16,C  18)          111.3202         0.378981   
    153. A(C  15,C  16,C  18)          111.0372         0.360789   
    154. A(C  15,C  16,O  17)          107.4991         0.376789   
    155. A(O  17,C  16,H  50)          109.0570         0.333989   
    156. A(C  16,O  17,H  51)          108.1446         0.353770   
    157. A(C  19,C  18,H  52)          109.7089         0.317950   
    158. A(H  52,C  18,H  53)          106.1905         0.285711   
    159. A(C  16,C  18,H  53)          106.8055         0.321336   
    160. A(C  16,C  18,H  52)          109.4510         0.320868   
    161. A(C  16,C  18,C  19)          114.1331         0.359413   
    162. A(C  19,C  18,H  53)          110.2207         0.318412   
    163. A(C  20,C  19,H  55)          109.6638         0.316344   
    164. A(C  20,C  19,H  54)          109.3184         0.316235   
    165. A(C  18,C  19,H  54)          110.1905         0.318340   
    166. A(C  18,C  19,C  20)          114.1100         0.353559   
    167. A(C  18,C  19,H  55)          107.2434         0.318450   
    168. A(H  54,C  19,H  55)          105.9840         0.286080   
    169. A(C  19,C  20,C  21)          109.7049         0.354100   
    170. A(C  14,C  20,C  21)          111.1280         0.355408   
    171. A(C  14,C  20,C  19)          107.0124         0.352423   
    172. A(C  19,C  20,C  22)          111.5386         0.351913   
    173. A(C  14,C  20,C  22)          106.7812         0.353210   
    174. A(C  21,C  20,C  22)          110.5952         0.354892   
    175. A(H  56,C  21,H  58)          107.8114         0.286404   
    176. A(C  20,C  21,H  58)          112.1315         0.319166   
    177. A(H  56,C  21,H  57)          106.8341         0.286668   
    178. A(C  20,C  21,H  57)          111.7263         0.319474   
    179. A(C  20,C  21,H  56)          110.8643         0.318941   
    180. A(H  57,C  21,H  58)          107.2150         0.286862   
    181. A(C  23,C  22,H  59)          106.1016         0.319025   
    182. A(C  20,C  22,H  59)          106.0404         0.316499   
    183. A(C  11,C  22,H  59)          107.0137         0.317172   
    184. A(C  20,C  22,C  23)          114.9320         0.355626   
    185. A(C  11,C  22,C  23)          110.2722         0.356414   
    186. A(C  11,C  22,C  20)          111.9136         0.353478   
    187. A(C  22,C  23,H  60)          110.6492         0.319669   
    188. A(H  60,C  23,H  61)          105.8293         0.286114   
    189. A(C  22,C  23,C  24)          112.8414         0.358658   
    190. A(C  24,C  23,H  61)          107.9677         0.319431   
    191. A(C  22,C  23,H  61)          110.3515         0.319370   
    192. A(C  24,C  23,H  60)          108.9241         0.319730   
    193. A(O  25,C  24,C  26)          108.5134         0.377545   
    194. A(C  23,C  24,C  26)          110.4168         0.359806   
    195. A(C  23,C  24,O  25)          111.1324         0.376397   
    196. A(C  26,C  24,H  62)          109.0871         0.319307   
    197. A(O  25,C  24,H  62)          109.0568         0.333416   
    198. A(C  23,C  24,H  62)          108.6008         0.318390   
    199. A(C  24,O  25,H  63)          108.3288         0.353596   
    200. A(C  24,C  26,C  27)          108.7564         0.358661   
    201. A(C  10,C  26,C  27)          111.5193         0.354541   
    202. A(C   7,C  26,C  27)          112.7038         0.354437   
    203. A(C  10,C  26,C  24)          109.1054         0.356734   
    204. A(C   7,C  26,C  24)          115.5574         0.356630   
    205. A(C   7,C  26,C  10)           98.8597         0.352541   
    206. A(H  65,C  27,H  66)          107.1673         0.287065   
    207. A(H  64,C  27,H  66)          106.7054         0.287250   
    208. A(C  26,C  27,H  66)          112.2179         0.319250   
    209. A(H  64,C  27,H  65)          106.7088         0.287092   
    210. A(C  26,C  27,H  65)          111.2655         0.319067   
    211. A(C  26,C  27,H  64)          112.4275         0.319282   
    212. D(H  31,C   1,C   0,H  28)   -178.4760         0.010557   
    213. D(H  31,C   1,C   0,H  29)    -58.6978         0.010557   
    214. D(C   7,C   1,C   0,H  28)    -66.1529         0.010557   
    215. D(H  31,C   1,C   0,H  30)     61.2440         0.010557   
    216. D(C   7,C   1,C   0,H  30)    173.5670         0.010557   
    217. D(C   7,C   1,C   0,H  29)     53.6252         0.010557   
    218. D(C   2,C   1,C   0,H  30)    -51.3442         0.010557   
    219. D(C   2,C   1,C   0,H  28)     68.9359         0.010557   
    220. D(C   2,C   1,C   0,H  29)   -171.2860         0.010557   
    221. D(H  32,C   2,C   1,C   7)   -171.8390         0.010078   
    222. D(H  32,C   2,C   1,H  31)    -55.3953         0.010078   
    223. D(C   3,C   2,C   1,H  31)   -175.9222         0.010078   
    224. D(C   3,C   2,C   1,C   0)    -61.9966         0.010078   
    225. D(H  32,C   2,C   1,C   0)     58.5302         0.010078   
    226. D(H  33,C   2,C   1,H  31)     59.2472         0.010078   
    227. D(C   3,C   2,C   1,C   7)     67.6342         0.010078   
    228. D(H  33,C   2,C   1,C   0)    173.1727         0.010078   
    229. D(H  33,C   2,C   1,C   7)    -57.1965         0.010078   
    230. D(H  35,C   3,C   2,H  33)     60.6012         0.010277   
    231. D(H  35,C   3,C   2,C   1)    -65.0852         0.010277   
    232. D(H  35,C   3,C   2,H  32)    174.6150         0.010277   
    233. D(H  34,C   3,C   2,H  33)   -178.4966         0.010277   
    234. D(H  34,C   3,C   2,C   1)     55.8170         0.010277   
    235. D(C   4,C   3,C   2,H  33)    -57.9967         0.010277   
    236. D(C   4,C   3,C   2,C   1)    176.3169         0.010277   
    237. D(H  34,C   3,C   2,H  32)    -64.4828         0.010277   
    238. D(C   4,C   3,C   2,H  32)     56.0171         0.010277   
    239. D(O   5,C   4,C   3,H  34)     48.2781         0.012068   
    240. D(O   5,C   4,C   3,H  35)    165.5112         0.012068   
    241. D(O   5,C   4,C   3,C   2)    -72.9402         0.012068   
    242. D(O   6,C   4,C   3,C   2)    105.2655         0.012068   
    243. D(O   6,C   4,C   3,H  34)   -133.5162         0.012068   
    244. D(O   6,C   4,C   3,H  35)    -16.2831         0.012068   
    245. D(H  36,O   5,C   4,C   3)    177.6358         0.029937   
    246. D(H  36,O   5,C   4,O   6)     -0.6475         0.029937   
    247. D(H  37,C   7,C   1,C   2)    172.1779         0.009983   
    248. D(H  37,C   7,C   1,H  31)     55.8171         0.009983   
    249. D(H  37,C   7,C   1,C   0)    -57.7660         0.009983   
    250. D(C  26,C   7,C   1,H  31)    -58.5439         0.009983   
    251. D(C  26,C   7,C   1,C   2)     57.8169         0.009983   
    252. D(C  26,C   7,C   1,C   0)   -172.1270         0.009983   
    253. D(C   8,C   7,C   1,C   2)    -71.4832         0.009983   
    254. D(C   8,C   7,C   1,H  31)    172.1560         0.009983   
    255. D(C   8,C   7,C   1,C   0)     58.5730         0.009983   
    256. D(H  39,C   8,C   7,C  26)    145.9781         0.009331   
    257. D(C   9,C   8,C   7,C  26)     25.1146         0.009331   
    258. D(C   9,C   8,C   7,H  37)    -83.1465         0.009331   
    259. D(H  39,C   8,C   7,C   1)    -77.0814         0.009331   
    260. D(H  38,C   8,C   7,C  26)    -95.5195         0.009331   
    261. D(H  38,C   8,C   7,H  37)    156.2193         0.009331   
    262. D(H  38,C   8,C   7,C   1)     41.4210         0.009331   
    263. D(H  39,C   8,C   7,H  37)     37.7169         0.009331   
    264. D(C   9,C   8,C   7,C   1)    162.0551         0.009331   
    265. D(H  41,C   9,C   8,H  39)    126.1196         0.009140   
    266. D(H  41,C   9,C   8,H  38)      8.0395         0.009140   
    267. D(H  41,C   9,C   8,C   7)   -113.6754         0.009140   
    268. D(H  40,C   9,C   8,C   7)    127.1336         0.009140   
    269. D(C  10,C   9,C   8,C   7)      5.4328         0.009140   
    270. D(H  40,C   9,C   8,H  38)   -111.1515         0.009140   
    271. D(C  10,C   9,C   8,H  39)   -114.7722         0.009140   
    272. D(C  10,C   9,C   8,H  38)    127.1477         0.009140   
    273. D(H  40,C   9,C   8,H  39)      6.9286         0.009140   
    274. D(C  11,C  10,C   9,C   8)   -161.8158         0.010531   
    275. D(H  42,C  10,C   9,H  40)    -44.2847         0.010531   
    276. D(H  42,C  10,C   9,C   8)     77.2755         0.010531   
    277. D(C  26,C  10,C   9,H  41)     85.2563         0.010531   
    278. D(C  26,C  10,C   9,H  40)   -155.6296         0.010531   
    279. D(C  26,C  10,C   9,C   8)    -34.0694         0.010531   
    280. D(C  11,C  10,C   9,H  41)    -42.4902         0.010531   
    281. D(H  42,C  10,C   9,H  41)   -163.3988         0.010531   
    282. D(C  11,C  10,C   9,H  40)     76.6240         0.010531   
    283. D(H  43,C  11,C  10,H  42)   -173.2263         0.011149   
    284. D(C  22,C  11,C  10,C  26)     58.6068         0.011149   
    285. D(C  22,C  11,C  10,C   9)   -178.7766         0.011149   
    286. D(C  12,C  11,C  10,H  42)     68.6044         0.011149   
    287. D(H  43,C  11,C  10,C   9)     65.2986         0.011149   
    288. D(C  12,C  11,C  10,C  26)   -175.4872         0.011149   
    289. D(C  12,C  11,C  10,C   9)    -52.8707         0.011149   
    290. D(C  22,C  11,C  10,H  42)    -57.3016         0.011149   
    291. D(H  43,C  11,C  10,C  26)    -57.3179         0.011149   
    292. D(H  45,C  12,C  11,H  43)    -14.1912         0.009514   
    293. D(H  45,C  12,C  11,C  22)   -132.5830         0.009514   
    294. D(H  45,C  12,C  11,C  10)    104.3677         0.009514   
    295. D(H  44,C  12,C  11,H  43)   -126.8053         0.009514   
    296. D(H  44,C  12,C  11,C  22)    114.8028         0.009514   
    297. D(H  44,C  12,C  11,C  10)     -8.2465         0.009514   
    298. D(C  13,C  12,C  11,H  43)    109.5731         0.009514   
    299. D(C  13,C  12,C  11,C  22)     -8.8187         0.009514   
    300. D(C  13,C  12,C  11,C  10)   -131.8680         0.009514   
    301. D(H  46,C  13,C  12,H  45)    -66.8813         0.013486   
    302. D(H  46,C  13,C  12,H  44)     45.6160         0.013486   
    303. D(H  46,C  13,C  12,C  11)    169.9666         0.013486   
    304. D(C  14,C  13,C  12,H  45)    111.2390         0.013486   
    305. D(C  14,C  13,C  12,H  44)   -136.2637         0.013486   
    306. D(C  14,C  13,C  12,C  11)    -11.9131         0.013486   
    307. D(H  47,C  14,C  13,C  12)    107.3371         0.013508   
    308. D(C  20,C  14,C  13,H  46)    170.3236         0.013508   
    309. D(C  20,C  14,C  13,C  12)     -7.8007         0.013508   
    310. D(C  15,C  14,C  13,H  46)     41.2475         0.013508   
    311. D(C  15,C  14,C  13,C  12)   -136.8768         0.013508   
    312. D(H  47,C  14,C  13,H  46)    -74.5386         0.013508   
    313. D(H  49,C  15,C  14,H  47)     47.5605         0.009995   
    314. D(H  49,C  15,C  14,C  20)    161.3417         0.009995   
    315. D(H  49,C  15,C  14,C  13)    -68.7128         0.009995   
    316. D(H  48,C  15,C  14,H  47)    164.5697         0.009995   
    317. D(H  48,C  15,C  14,C  20)    -81.6491         0.009995   
    318. D(H  48,C  15,C  14,C  13)     48.2964         0.009995   
    319. D(C  16,C  15,C  14,H  47)    -71.5372         0.009995   
    320. D(C  16,C  15,C  14,C  20)     42.2439         0.009995   
    321. D(C  16,C  15,C  14,C  13)    172.1895         0.009995   
    322. D(H  50,C  16,C  15,H  48)     22.3253         0.010388   
    323. D(H  50,C  16,C  15,C  14)   -101.4798         0.010388   
    324. D(C  18,C  16,C  15,H  49)   -101.9428         0.010388   
    325. D(O  17,C  16,C  15,H  49)     20.0428         0.010388   
    326. D(O  17,C  16,C  15,H  48)    -95.9508         0.010388   
    327. D(O  17,C  16,C  15,C  14)    140.2440         0.010388   
    328. D(C  18,C  16,C  15,H  48)    142.0636         0.010388   
    329. D(H  50,C  16,C  15,H  49)    138.3189         0.010388   
    330. D(C  18,C  16,C  15,C  14)     18.2585         0.010388   
    331. D(H  51,O  17,C  16,H  50)     59.8976         0.019512   
    332. D(H  51,O  17,C  16,C  18)    -59.8161         0.019512   
    333. D(H  51,O  17,C  16,C  15)    178.3745         0.019512   
    334. D(H  52,C  18,C  16,O  17)     60.1553         0.011061   
    335. D(H  52,C  18,C  16,C  15)    179.8870         0.011061   
    336. D(C  19,C  18,C  16,H  50)     63.5024         0.011061   
    337. D(C  19,C  18,C  16,O  17)   -176.4690         0.011061   
    338. D(C  19,C  18,C  16,C  15)    -56.7373         0.011061   
    339. D(H  53,C  18,C  16,H  50)   -174.4281         0.011061   
    340. D(H  53,C  18,C  16,O  17)    -54.3995         0.011061   
    341. D(H  53,C  18,C  16,C  15)     65.3323         0.011061   
    342. D(H  52,C  18,C  16,H  50)    -59.8733         0.011061   
    343. D(H  55,C  19,C  18,H  53)     33.6318         0.009966   
    344. D(H  55,C  19,C  18,H  52)    -82.9571         0.009966   
    345. D(H  55,C  19,C  18,C  16)    153.8068         0.009966   
    346. D(H  54,C  19,C  18,H  53)    148.5513         0.009966   
    347. D(H  54,C  19,C  18,H  52)     31.9625         0.009966   
    348. D(H  54,C  19,C  18,C  16)    -91.2736         0.009966   
    349. D(C  20,C  19,C  18,H  53)    -88.0309         0.009966   
    350. D(C  20,C  19,C  18,H  52)    155.3803         0.009966   
    351. D(C  20,C  19,C  18,C  16)     32.1442         0.009966   
    352. D(C  22,C  20,C  19,H  55)     22.9797         0.009250   
    353. D(C  22,C  20,C  19,H  54)    -92.8143         0.009250   
    354. D(C  22,C  20,C  19,C  18)    143.2974         0.009250   
    355. D(C  21,C  20,C  19,H  54)     30.0773         0.009250   
    356. D(C  21,C  20,C  19,C  18)    -93.8110         0.009250   
    357. D(C  14,C  20,C  19,H  55)    -93.4666         0.009250   
    358. D(C  14,C  20,C  19,H  54)    150.7394         0.009250   
    359. D(C  14,C  20,C  19,C  18)     26.8512         0.009250   
    360. D(C  22,C  20,C  14,H  47)    -70.8503         0.009624   
    361. D(C  22,C  20,C  14,C  15)    174.7729         0.009624   
    362. D(C  22,C  20,C  14,C  13)     45.3368         0.009624   
    363. D(C  21,C  20,C  14,H  47)    168.4579         0.009624   
    364. D(C  21,C  20,C  14,C  15)     54.0811         0.009624   
    365. D(C  21,C  20,C  19,H  55)    145.8712         0.009250   
    366. D(C  21,C  20,C  14,C  13)    -75.3551         0.009624   
    367. D(C  19,C  20,C  14,H  47)     48.7056         0.009624   
    368. D(C  19,C  20,C  14,C  15)    -65.6712         0.009624   
    369. D(C  19,C  20,C  14,C  13)    164.8927         0.009624   
    370. D(H  58,C  21,C  20,C  19)    165.9825         0.010133   
    371. D(H  58,C  21,C  20,C  14)     47.8461         0.010133   
    372. D(H  57,C  21,C  20,C  22)    169.0329         0.010133   
    373. D(H  57,C  21,C  20,C  19)     45.5853         0.010133   
    374. D(H  57,C  21,C  20,C  14)    -72.5511         0.010133   
    375. D(H  56,C  21,C  20,C  22)     49.9873         0.010133   
    376. D(H  56,C  21,C  20,C  19)    -73.4602         0.010133   
    377. D(H  58,C  21,C  20,C  22)    -70.5700         0.010133   
    378. D(H  56,C  21,C  20,C  14)    168.4034         0.010133   
    379. D(H  59,C  22,C  20,C  21)    170.1028         0.009474   
    380. D(H  59,C  22,C  20,C  19)    -67.5158         0.009474   
    381. D(C  23,C  22,C  20,C  21)    -73.0326         0.009474   
    382. D(C  23,C  22,C  20,C  19)     49.3489         0.009474   
    383. D(C  23,C  22,C  20,C  14)    165.9359         0.009474   
    384. D(C  11,C  22,C  20,C  21)     53.7548         0.009474   
    385. D(C  11,C  22,C  20,C  19)    176.1362         0.009474   
    386. D(C  11,C  22,C  20,C  14)    -67.2768         0.009474   
    387. D(H  59,C  22,C  11,H  43)    174.7666         0.009703   
    388. D(H  59,C  22,C  11,C  12)    -67.0113         0.009703   
    389. D(H  59,C  22,C  11,C  10)     58.5986         0.009703   
    390. D(C  23,C  22,C  11,H  43)     59.7927         0.009703   
    391. D(C  23,C  22,C  11,C  12)    178.0147         0.009703   
    392. D(C  23,C  22,C  11,C  10)    -56.3754         0.009703   
    393. D(H  59,C  22,C  20,C  14)     49.0712         0.009474   
    394. D(C  20,C  22,C  11,H  43)    -69.4761         0.009703   
    395. D(C  20,C  22,C  11,C  12)     48.7459         0.009703   
    396. D(C  20,C  22,C  11,C  10)    174.3559         0.009703   
    397. D(H  61,C  23,C  22,H  59)     62.6357         0.010365   
    398. D(H  61,C  23,C  22,C  20)    -54.1942         0.010365   
    399. D(H  61,C  23,C  22,C  11)    178.1844         0.010365   
    400. D(H  60,C  23,C  22,H  59)    179.4239         0.010365   
    401. D(H  60,C  23,C  22,C  20)     62.5940         0.010365   
    402. D(H  60,C  23,C  22,C  11)    -65.0274         0.010365   
    403. D(C  24,C  23,C  22,H  59)    -58.2453         0.010365   
    404. D(C  24,C  23,C  22,C  20)   -175.0752         0.010365   
    405. D(C  24,C  23,C  22,C  11)     57.3034         0.010365   
    406. D(H  62,C  24,C  23,H  60)    -52.4404         0.010387   
    407. D(H  62,C  24,C  23,C  22)   -175.7339         0.010387   
    408. D(C  26,C  24,C  23,H  61)   -178.3971         0.010387   
    409. D(C  26,C  24,C  23,H  60)     67.1260         0.010387   
    410. D(C  26,C  24,C  23,C  22)    -56.1674         0.010387   
    411. D(O  25,C  24,C  23,H  61)    -57.9255         0.010387   
    412. D(O  25,C  24,C  23,H  60)   -172.4023         0.010387   
    413. D(H  62,C  24,C  23,H  61)     62.0364         0.010387   
    414. D(O  25,C  24,C  23,C  22)     64.3043         0.010387   
    415. D(H  63,O  25,C  24,H  62)    -66.7345         0.019274   
    416. D(H  63,O  25,C  24,C  26)    174.5461         0.019274   
    417. D(H  63,O  25,C  24,C  23)     52.9561         0.019274   
    418. D(C  27,C  26,C  24,H  62)     51.5462         0.010734   
    419. D(C  27,C  26,C  24,O  25)    170.2464         0.010734   
    420. D(C  10,C  26,C  24,H  62)    173.3892         0.010734   
    421. D(C  10,C  26,C  24,O  25)    -67.9105         0.010734   
    422. D(C  10,C  26,C  24,C  23)     54.1171         0.010734   
    423. D(C   7,C  26,C  24,H  62)    -76.3486         0.010734   
    424. D(C   7,C  26,C  24,O  25)     42.3516         0.010734   
    425. D(C   7,C  26,C  24,C  23)    164.3793         0.010734   
    426. D(C  27,C  26,C  10,H  42)    178.1246         0.009467   
    427. D(C  27,C  26,C  10,C   9)    -69.5959         0.009467   
    428. D(C  24,C  26,C  10,H  42)     57.9678         0.009467   
    429. D(C  24,C  26,C  10,C  11)    -58.0046         0.009467   
    430. D(C  24,C  26,C  10,C   9)    170.2473         0.009467   
    431. D(C   7,C  26,C  10,H  42)    -63.1012         0.009467   
    432. D(C   7,C  26,C  10,C  11)   -179.0737         0.009467   
    433. D(C  27,C  26,C  10,C  11)     62.1521         0.009467   
    434. D(C   7,C  26,C  10,C   9)     49.1783         0.009467   
    435. D(C  27,C  26,C   7,H  37)   -177.4053         0.009437   
    436. D(C  27,C  26,C   7,C   8)     72.6773         0.009437   
    437. D(C  27,C  26,C   7,C   1)    -63.4095         0.009437   
    438. D(C  24,C  26,C   7,H  37)    -51.5010         0.009437   
    439. D(C  24,C  26,C   7,C   8)   -161.4183         0.009437   
    440. D(C  24,C  26,C   7,C   1)     62.4949         0.009437   
    441. D(C  27,C  26,C  24,C  23)    -67.7260         0.010734   
    442. D(C  10,C  26,C   7,H  37)     64.7133         0.009437   
    443. D(C  10,C  26,C   7,C   8)    -45.2041         0.009437   
    444. D(C  10,C  26,C   7,C   1)    178.7091         0.009437   
    445. D(H  66,C  27,C  26,C  24)   -161.1353         0.010033   
    446. D(H  66,C  27,C  26,C  10)     78.5027         0.010033   
    447. D(H  66,C  27,C  26,C   7)    -31.6443         0.010033   
    448. D(H  65,C  27,C  26,C  24)    -41.0627         0.010033   
    449. D(H  65,C  27,C  26,C  10)   -161.4246         0.010033   
    450. D(H  65,C  27,C  26,C   7)     88.4283         0.010033   
    451. D(H  64,C  27,C  26,C  24)     78.5668         0.010033   
    452. D(H  64,C  27,C  26,C  10)    -41.7951         0.010033   
    453. D(H  64,C  27,C  26,C   7)   -151.9422         0.010033   
    -----------------------------------------------------------------

Number of atoms                         .... 67
Number of degrees of freedom            .... 453

         *************************************************************
         *                GEOMETRY OPTIMIZATION CYCLE   1            *
         *************************************************************
---------------------------------
CARTESIAN COORDINATES (ANGSTROEM)
---------------------------------
  C      4.784539   -0.277479   -2.367453
  C      3.918969    0.245060   -1.208697
  C      4.753219    0.358932    0.086310
  C      5.358797   -0.937939    0.659441
  C      6.213008   -0.639892    1.867266
  O      7.382825   -0.047380    1.527783
  O      5.913144   -0.855862    3.015846
  C      2.560115   -0.492315   -1.199852
  C      2.538792   -2.042215   -1.062724
  C      1.086562   -2.404991   -0.626248
  C      0.330651   -1.066226   -0.675378
  C     -0.997496   -0.902407    0.066161
  C     -2.027443   -2.007234   -0.295782
  C     -3.401925   -1.532409   -0.635976
  C     -3.910187   -0.146518   -0.410807
  C     -5.343526   -0.121111    0.167658
  C     -5.797471    1.291937    0.579310
  O     -7.162355    1.429160    0.203366
  C     -4.927218    2.363515   -0.082948
  C     -3.416085    2.222652    0.213219
  C     -2.938615    0.751946    0.399080
  C     -2.958950    0.383559    1.898199
  C     -1.521188    0.532524   -0.198499
  C     -0.468059    1.572403    0.229077
  C      0.884274    1.381347   -0.482939
  O      0.760276    1.592661   -1.885678
  C      1.416641   -0.039730   -0.249157
  C      1.786359   -0.192543    1.243477
  H      5.073864   -1.333821   -2.224339
  H      4.238799   -0.213981   -3.326157
  H      5.713836    0.312378   -2.465906
  H      3.662207    1.291572   -1.459590
  H      5.592023    1.044706   -0.132021
  H      4.162693    0.845966    0.876268
  H      5.980355   -1.436290   -0.103927
  H      4.578767   -1.635545    0.990584
  H      7.854485    0.144629    2.363018
  H      2.159896   -0.276896   -2.203088
  H      3.267497   -2.405449   -0.323336
  H      2.805741   -2.519426   -2.019432
  H      0.633996   -3.165047   -1.283661
  H      1.074096   -2.821635    0.396827
  H      0.114292   -0.853615   -1.737007
  H     -0.794523   -0.987140    1.146223
  H     -1.646223   -2.619428   -1.138836
  H     -2.080140   -2.730290    0.549278
  H     -4.102589   -2.264085   -1.056751
  H     -3.977788    0.335401   -1.412096
  H     -5.421763   -0.813687    1.022414
  H     -6.049954   -0.480477   -0.600265
  H     -5.712406    1.399571    1.680073
  H     -7.466119    2.309080    0.482391
  H     -5.276681    3.366338    0.228465
  H     -5.110948    2.297202   -1.169799
  H     -3.146735    2.810275    1.108976
  H     -2.872938    2.685973   -0.628965
  H     -2.127884    0.873562    2.434794
  H     -3.890417    0.710942    2.385798
  H     -2.870509   -0.703677    2.060075
  H     -1.631379    0.640038   -1.294566
  H     -0.306321    1.536507    1.320036
  H     -0.826699    2.594608    0.011004
  H      1.609239    2.113435   -0.068675
  H      0.342810    2.457594   -2.028439
  H      0.903694   -0.358061    1.879921
  H      2.287453    0.711284    1.625618
  H      2.466598   -1.040086    1.419180

----------------------------
CARTESIAN COORDINATES (A.U.)
----------------------------
  NO LB      ZA    FRAG     MASS         X           Y           Z
   0 C     6.0000    0    12.011    9.041468   -0.524359   -4.473838
   1 C     6.0000    0    12.011    7.405778    0.463097   -2.284107
   2 C     6.0000    0    12.011    8.982281    0.678283    0.163103
   3 C     6.0000    0    12.011   10.126659   -1.772449    1.246163
   4 C     6.0000    0    12.011   11.740884   -1.209221    3.528622
   5 O     8.0000    0    15.999   13.951517   -0.089535    2.887091
   6 O     8.0000    0    15.999   11.174224   -1.617345    5.699122
   7 C     6.0000    0    12.011    4.837917   -0.930340   -2.267392
   8 C     6.0000    0    12.011    4.797622   -3.859227   -2.008258
   9 C     6.0000    0    12.011    2.053304   -4.544774   -1.183437
  10 C     6.0000    0    12.011    0.624841   -2.014875   -1.276280
  11 C     6.0000    0    12.011   -1.884994   -1.705303    0.125026
  12 C     6.0000    0    12.011   -3.831312   -3.793122   -0.558947
  13 C     6.0000    0    12.011   -6.428707   -2.895833   -1.201820
  14 C     6.0000    0    12.011   -7.389183   -0.276879   -0.776312
  15 C     6.0000    0    12.011  -10.097801   -0.228866    0.316827
  16 C     6.0000    0    12.011  -10.955632    2.441408    1.094738
  17 O     8.0000    0    15.999  -13.534890    2.700720    0.384305
  18 C     6.0000    0    12.011   -9.311093    4.466396   -0.156750
  19 C     6.0000    0    12.011   -6.455465    4.200204    0.402926
  20 C     6.0000    0    12.011   -5.553177    1.420971    0.754152
  21 C     6.0000    0    12.011   -5.591605    0.724822    3.587076
  22 C     6.0000    0    12.011   -2.874629    1.006324   -0.375108
  23 C     6.0000    0    12.011   -0.884504    2.971411    0.432893
  24 C     6.0000    0    12.011    1.671036    2.610367   -0.912623
  25 O     8.0000    0    15.999    1.436713    3.009693   -3.563415
  26 C     6.0000    0    12.011    2.677063   -0.075078   -0.470838
  27 C     6.0000    0    12.011    3.375730   -0.363854    2.349832
  28 H     1.0000    0     1.008    9.588214   -2.520557   -4.203392
  29 H     1.0000    0     1.008    8.010169   -0.404365   -6.285527
  30 H     1.0000    0     1.008   10.797585    0.590309   -4.659886
  31 H     1.0000    0     1.008    6.920568    2.440718   -2.758226
  32 H     1.0000    0     1.008   10.567392    1.974209   -0.249483
  33 H     1.0000    0     1.008    7.866349    1.598644    1.655906
  34 H     1.0000    0     1.008   11.301233   -2.714195   -0.196394
  35 H     1.0000    0     1.008    8.652616   -3.090732    1.871933
  36 H     1.0000    0     1.008   14.842825    0.273309    4.465457
  37 H     1.0000    0     1.008    4.081612   -0.523258   -4.163233
  38 H     1.0000    0     1.008    6.174674   -4.545640   -0.611016
  39 H     1.0000    0     1.008    5.302082   -4.761026   -3.816173
  40 H     1.0000    0     1.008    1.198079   -5.981073   -2.425768
  41 H     1.0000    0     1.008    2.029748   -5.332118    0.749895
  42 H     1.0000    0     1.008    0.215981   -1.613099   -3.282468
  43 H     1.0000    0     1.008   -1.501432   -1.865425    2.166048
  44 H     1.0000    0     1.008   -3.110911   -4.950001   -2.152088
  45 H     1.0000    0     1.008   -3.930896   -5.159501    1.037984
  46 H     1.0000    0     1.008   -7.752769   -4.278500   -1.996969
  47 H     1.0000    0     1.008   -7.516930    0.633816   -2.668476
  48 H     1.0000    0     1.008  -10.245648   -1.537645    1.932083
  49 H     1.0000    0     1.008  -11.432755   -0.907969   -1.134337
  50 H     1.0000    0     1.008  -10.794883    2.644806    3.174878
  51 H     1.0000    0     1.008  -14.108920    4.363528    0.911587
  52 H     1.0000    0     1.008   -9.971482    6.361456    0.431737
  53 H     1.0000    0     1.008   -9.658292    4.341083   -2.210600
  54 H     1.0000    0     1.008   -5.946466    5.310649    2.095660
  55 H     1.0000    0     1.008   -5.429066    5.075754   -1.188571
  56 H     1.0000    0     1.008   -4.021117    1.650793    4.601095
  57 H     1.0000    0     1.008   -7.351823    1.343487    4.508506
  58 H     1.0000    0     1.008   -5.424476   -1.329757    3.892978
  59 H     1.0000    0     1.008   -3.082859    1.209496   -2.446376
  60 H     1.0000    0     1.008   -0.578864    2.903578    2.494507
  61 H     1.0000    0     1.008   -1.562235    4.903099    0.020795
  62 H     1.0000    0     1.008    3.041021    3.993813   -0.129776
  63 H     1.0000    0     1.008    0.647817    4.644179   -3.833194
  64 H     1.0000    0     1.008    1.707734   -0.676636    3.552537
  65 H     1.0000    0     1.008    4.322660    1.344132    3.071972
  66 H     1.0000    0     1.008    4.661195   -1.965477    2.681862

--------------------------------
INTERNAL COORDINATES (ANGSTROEM)
--------------------------------
 C      0   0   0     0.000000000000     0.00000000     0.00000000
 C      1   0   0     1.537847180314     0.00000000     0.00000000
 C      2   1   0     1.544663130674   110.65705298     0.00000000
 C      3   2   1     1.541777656149   117.50186038   298.00339956
 C      4   3   2     1.509089621111   110.71531129   176.31691353
 O      5   4   3     1.354543919664   112.00262056   287.05975835
 O      5   4   3     1.206563709693   125.86475167   105.26545483
 C      2   1   3     1.546053686333   109.69102397   224.91120927
 C      8   2   1     1.556101031094   119.18215086    58.57295809
 C      9   8   2     1.559195576684   105.61507853   162.05513025
 C     10   9   8     1.538215191253   104.25668867     5.43275475
 C     11  10   9     1.529932049129   120.28604960   198.18418721
 C     12  11  10     1.553201688842   112.73947053   307.12934654
 C     13  12  11     1.493449675709   115.92629532   228.13196489
 C     14  13  12     1.493226238518   125.02957636   348.08691804
 C     15  14  13     1.545873901234   112.78540268   223.12316771
 C     16  15  14     1.540203864417   112.85287759   172.18947931
 O     17  16  15     1.422348110045   107.49909277   140.24403107
 C     17  16  15     1.531079891080   111.03719773    18.25845797
 C     19  17  16     1.546311919961   114.13310559   303.26274545
 C     15  14  13     1.551485144440   113.76809927   352.19930852
 C     21  15  14     1.543852205443   111.12795914   284.64494858
 C     12  11  10     1.550266169609   108.03623212   181.22336181
 C     23  12  11     1.540535951379   110.27215897   303.62464763
 C     24  23  12     1.540219023860   112.84144802    57.30338135
 O     25  24  23     1.423975426406   111.13236685    64.30428590
 C     25  24  23     1.535423766780   110.41684912   303.83259637
 C     27  25  24     1.545315679831   108.75644553   292.27403907
 H      1   2   3     1.104558779715   112.00925774    68.93585469
 H      1   2   3     1.104978765961   110.86921710   188.71402246
 H      1   2   3     1.105086815122   111.04336193   308.65579331
 H      2   1   3     1.106373183994   106.32909715   112.58818023
 H      3   2   1     1.105236786767   106.85895998    58.53022032
 H      3   2   1     1.099980190205   110.16833169   173.17271282
 H      4   3   2     1.103367025301   110.12057559    55.81702184
 H      4   3   2     1.097613734935   111.56923897   294.91479451
 H      6   5   4     0.978237631019   106.75432420   177.63580560
 H      8   2   1     1.101391389414   102.76089509   302.23403403
 H      9   8   2     1.099838686080   112.27845367    41.42101854
 H      9   8   2     1.101944413051   110.57966238   282.91858761
 H     10   9   8     1.102131128254   112.08186562   127.13358613
 H     10   9   8     1.104730847587   110.94703632   246.32456575
 H     11  10   9     1.104115224648   107.13365505    77.27554767
 H     12  11  10     1.102230731512   107.86939514    65.29863413
 H     13  12  11     1.109436530042   109.98256402   351.75353027
 H     13  12  11     1.113424561863   108.44850882   104.36771500
 H     14  13  12     1.096963957074   117.59118110   169.96663300
 H     15  14  13     1.113281919272   106.66702292   107.33709166
 H     16  15  14     1.102901604275   110.20986297    48.29640860
 H     16  15  14     1.103580295899   109.13451961   291.28722737
 H     17  16  15     1.109278784330   109.36823230   258.52016528
 H     18  17  16     0.971795749799   108.14457900   178.37450886
 H     19  17  16     1.106686877164   109.45099549   179.88704117
 H     19  17  16     1.104263980717   106.80549102    65.33229124
 H     20  19  17     1.104639805805   110.19050338   268.72638602
 H     20  19  17     1.104060442369   107.24341741   153.80682299
 H     22  21  15     1.103951540856   110.86431970   168.40336090
 H     22  21  15     1.101164764143   111.72631086   287.44888113
 H     22  21  15     1.102773021029   112.13151955    47.84606159
 H     23  12  11     1.106826472240   107.01368843    58.59863891
 H     24  23  12     1.103466942140   110.64915928   294.97257904
 H     24  23  12     1.105025773121   110.35145180   178.18436073
 H     25  24  23     1.110469737477   108.60084684   184.26614791
 H     26  25  24     0.970961930248   108.32881802    52.95611075
 H     28  27  25     1.100706822952   112.42753671    78.56681785
 H     28  27  25     1.101830193662   111.26545364   318.93729578
 H     28  27  25     1.100874532761   112.21785047   198.86466301

---------------------------
INTERNAL COORDINATES (A.U.)
---------------------------
 C      0   0   0     0.000000000000     0.00000000     0.00000000
 C      1   0   0     2.906110006616     0.00000000     0.00000000
 C      2   1   0     2.918990286140   110.65705298     0.00000000
 C      3   2   1     2.913537529520   117.50186038   298.00339956
 C      4   3   2     2.851766095443   110.71531129   176.31691353
 O      5   4   3     2.559717044533   112.00262056   287.05975835
 O      5   4   3     2.280074974448   125.86475167   105.26545483
 C      2   1   3     2.921618055508   109.69102397   224.91120927
 C      8   2   1     2.940604785481   119.18215086    58.57295809
 C      9   8   2     2.946452629155   105.61507853   162.05513025
 C     10   9   8     2.906805446506   104.25668867     5.43275475
 C     11  10   9     2.891152576363   120.28604960   198.18418721
 C     12  11  10     2.935125822655   112.73947053   307.12934654
 C     13  12  11     2.822210881884   115.92629532   228.13196489
 C     14  13  12     2.821788646784   125.02957636   348.08691804
 C     15  14  13     2.921278310909   112.78540268   223.12316771
 C     16  15  14     2.910563494156   112.85287759   172.18947931
 O     17  16  15     2.687848395086   107.49909277   140.24403107
 C     17  16  15     2.893321683295   111.03719773    18.25845797
 C     19  17  16     2.922106046344   114.13310559   303.26274545
 C     15  14  13     2.931882023840   113.76809927   352.19930852
 C     21  15  14     2.917457859538   111.12795914   284.64494858
 C     12  11  10     2.929578495244   108.03623212   181.22336181
 C     23  12  11     2.911191047566   110.27215897   303.62464763
 C     24  23  12     2.910592141351   112.84144802    57.30338135
 O     25  24  23     2.690923577340   111.13236685    64.30428590
 C     25  24  23     2.901530418727   110.41684912   303.83259637
 C     27  25  24     2.920223425335   108.75644553   292.27403907
 H      1   2   3     2.087313592480   112.00925774    68.93585469
 H      1   2   3     2.088107251464   110.86921710   188.71402246
 H      1   2   3     2.088311434787   111.04336193   308.65579331
 H      2   1   3     2.090742319663   106.32909715   112.58818023
 H      3   2   1     2.088594840124   106.85895998    58.53022032
 H      3   2   1     2.078661312226   110.16833169   173.17271282
 H      4   3   2     2.085061503018   110.12057559    55.81702184
 H      4   3   2     2.074189359858   111.56923897   294.91479451
 H      6   5   4     1.848601216522   106.75432420   177.63580560
 H      8   2   1     2.081328092251   102.76089509   302.23403403
 H      9   8   2     2.078393908183   112.27845367    41.42101854
 H      9   8   2     2.082373155471   110.57966238   282.91858761
 H     10   9   8     2.082725996070   112.08186562   127.13358613
 H     10   9   8     2.087638753634   110.94703632   246.32456575
 H     11  10   9     2.086475394878   107.13365505    77.27554767
 H     12  11  10     2.082914218949   107.86939514    65.29863413
 H     13  12  11     2.096531204747   109.98256402   351.75353027
 H     13  12  11     2.104067492701   108.44850882   104.36771500
 H     14  13  12     2.072961457652   117.59118110   169.96663300
 H     15  14  13     2.103797937270   106.66702292   107.33709166
 H     16  15  14     2.084181984742   110.20986297    48.29640860
 H     16  15  14     2.085464526041   109.13451961   291.28722737
 H     17  16  15     2.096233108552   109.36823230   258.52016528
 H     18  17  16     1.836427825229   108.14457900   178.37450886
 H     19  17  16     2.091335113844   109.45099549   179.88704117
 H     19  17  16     2.086756503109   106.80549102    65.33229124
 H     20  19  17     2.087466709599   110.19050338   268.72638602
 H     20  19  17     2.086371871374   107.24341741   153.80682299
 H     22  21  15     2.086166077338   110.86431970   168.40336090
 H     22  21  15     2.080899832554   111.72631086   287.44888113
 H     22  21  15     2.083938997621   112.13151955    47.84606159
 H     23  12  11     2.091598910308   107.01368843    58.59863891
 H     24  23  12     2.085250318480   110.64915928   294.97257904
 H     24  23  12     2.088196082123   110.35145180   178.18436073
 H     25  24  23     2.098483683839   108.60084684   184.26614791
 H     26  25  24     1.834852134632   108.32881802    52.95611075
 H     28  27  25     2.080034449117   112.42753671    78.56681785
 H     28  27  25     2.082157312107   111.26545364   318.93729578
 H     28  27  25     2.080351374727   112.21785047   198.86466301

---------------------
BASIS SET INFORMATION
---------------------
There are 3 groups of distinct atoms

 Group   1 Type C   : 7s4p1d contracted to 3s2p1d pattern {511/31/1}
 Group   2 Type O   : 7s4p1d contracted to 3s2p1d pattern {511/31/1}
 Group   3 Type H   : 4s contracted to 2s pattern {31}

Atom   0C    basis set group =>   1
Atom   1C    basis set group =>   1
Atom   2C    basis set group =>   1
Atom   3C    basis set group =>   1
Atom   4C    basis set group =>   1
Atom   5O    basis set group =>   2
Atom   6O    basis set group =>   2
Atom   7C    basis set group =>   1
Atom   8C    basis set group =>   1
Atom   9C    basis set group =>   1
Atom  10C    basis set group =>   1
Atom  11C    basis set group =>   1
Atom  12C    basis set group =>   1
Atom  13C    basis set group =>   1
Atom  14C    basis set group =>   1
Atom  15C    basis set group =>   1
Atom  16C    basis set group =>   1
Atom  17O    basis set group =>   2
Atom  18C    basis set group =>   1
Atom  19C    basis set group =>   1
Atom  20C    basis set group =>   1
Atom  21C    basis set group =>   1
Atom  22C    basis set group =>   1
Atom  23C    basis set group =>   1
Atom  24C    basis set group =>   1
Atom  25O    basis set group =>   2
Atom  26C    basis set group =>   1
Atom  27C    basis set group =>   1
Atom  28H    basis set group =>   3
Atom  29H    basis set group =>   3
Atom  30H    basis set group =>   3
Atom  31H    basis set group =>   3
Atom  32H    basis set group =>   3
Atom  33H    basis set group =>   3
Atom  34H    basis set group =>   3
Atom  35H    basis set group =>   3
Atom  36H    basis set group =>   3
Atom  37H    basis set group =>   3
Atom  38H    basis set group =>   3
Atom  39H    basis set group =>   3
Atom  40H    basis set group =>   3
Atom  41H    basis set group =>   3
Atom  42H    basis set group =>   3
Atom  43H    basis set group =>   3
Atom  44H    basis set group =>   3
Atom  45H    basis set group =>   3
Atom  46H    basis set group =>   3
Atom  47H    basis set group =>   3
Atom  48H    basis set group =>   3
Atom  49H    basis set group =>   3
Atom  50H    basis set group =>   3
Atom  51H    basis set group =>   3
Atom  52H    basis set group =>   3
Atom  53H    basis set group =>   3
Atom  54H    basis set group =>   3
Atom  55H    basis set group =>   3
Atom  56H    basis set group =>   3
Atom  57H    basis set group =>   3
Atom  58H    basis set group =>   3
Atom  59H    basis set group =>   3
Atom  60H    basis set group =>   3
Atom  61H    basis set group =>   3
Atom  62H    basis set group =>   3
Atom  63H    basis set group =>   3
Atom  64H    basis set group =>   3
Atom  65H    basis set group =>   3
Atom  66H    basis set group =>   3
---------------------------------
AUXILIARY/J BASIS SET INFORMATION
---------------------------------
There are 3 groups of distinct atoms

 Group   1 Type C   : 12s5p4d2f1g contracted to 6s4p3d1f1g pattern {711111/2111/211/2/1}
 Group   2 Type O   : 12s5p4d2f1g contracted to 6s4p3d1f1g pattern {711111/2111/211/2/1}
 Group   3 Type H   : 5s2p1d contracted to 3s1p1d pattern {311/2/1}

Atom   0C    basis set group =>   1
Atom   1C    basis set group =>   1
Atom   2C    basis set group =>   1
Atom   3C    basis set group =>   1
Atom   4C    basis set group =>   1
Atom   5O    basis set group =>   2
Atom   6O    basis set group =>   2
Atom   7C    basis set group =>   1
Atom   8C    basis set group =>   1
Atom   9C    basis set group =>   1
Atom  10C    basis set group =>   1
Atom  11C    basis set group =>   1
Atom  12C    basis set group =>   1
Atom  13C    basis set group =>   1
Atom  14C    basis set group =>   1
Atom  15C    basis set group =>   1
Atom  16C    basis set group =>   1
Atom  17O    basis set group =>   2
Atom  18C    basis set group =>   1
Atom  19C    basis set group =>   1
Atom  20C    basis set group =>   1
Atom  21C    basis set group =>   1
Atom  22C    basis set group =>   1
Atom  23C    basis set group =>   1
Atom  24C    basis set group =>   1
Atom  25O    basis set group =>   2
Atom  26C    basis set group =>   1
Atom  27C    basis set group =>   1
Atom  28H    basis set group =>   3
Atom  29H    basis set group =>   3
Atom  30H    basis set group =>   3
Atom  31H    basis set group =>   3
Atom  32H    basis set group =>   3
Atom  33H    basis set group =>   3
Atom  34H    basis set group =>   3
Atom  35H    basis set group =>   3
Atom  36H    basis set group =>   3
Atom  37H    basis set group =>   3
Atom  38H    basis set group =>   3
Atom  39H    basis set group =>   3
Atom  40H    basis set group =>   3
Atom  41H    basis set group =>   3
Atom  42H    basis set group =>   3
Atom  43H    basis set group =>   3
Atom  44H    basis set group =>   3
Atom  45H    basis set group =>   3
Atom  46H    basis set group =>   3
Atom  47H    basis set group =>   3
Atom  48H    basis set group =>   3
Atom  49H    basis set group =>   3
Atom  50H    basis set group =>   3
Atom  51H    basis set group =>   3
Atom  52H    basis set group =>   3
Atom  53H    basis set group =>   3
Atom  54H    basis set group =>   3
Atom  55H    basis set group =>   3
Atom  56H    basis set group =>   3
Atom  57H    basis set group =>   3
Atom  58H    basis set group =>   3
Atom  59H    basis set group =>   3
Atom  60H    basis set group =>   3
Atom  61H    basis set group =>   3
Atom  62H    basis set group =>   3
Atom  63H    basis set group =>   3
Atom  64H    basis set group =>   3
Atom  65H    basis set group =>   3
Atom  66H    basis set group =>   3
------------------------------------------------------------------------------
                           ORCA GTO INTEGRAL CALCULATION
------------------------------------------------------------------------------

                         BASIS SET STATISTICS AND STARTUP INFO

 # of primitive gaussian shells          ...  492
 # of primitive gaussian functions       ...  828
 # of contracted shells                  ...  246
 # of contracted basis functions         ...  470
 Highest angular momentum                ...    2
 Maximum contraction depth               ...    5
 Integral package used                   ... LIBINT
 Integral threshhold            Thresh   ...  2.500e-11
 Primitive cut-off              TCut     ...  2.500e-12


------------------------------ INTEGRAL EVALUATION ----------------------------


 * One electron integrals 
 Pre-screening matrix                    ... done
 Shell pair data                         ... done (   0.007 sec)

-------------------------------------------------------------------------------
                                 ORCA SCF
-------------------------------------------------------------------------------

------------
SCF SETTINGS
------------
Hamiltonian:
 Density Functional     Method          .... DFT(GTOs)
 Exchange Functional    Exchange        .... B88
   X-Alpha parameter    XAlpha          ....  0.666667
   Becke's b parameter  XBeta           ....  0.004200
 Correlation Functional Correlation     .... LYP
 LDA part of GGA corr.  LDAOpt          .... VWN-5
 Gradients option       PostSCFGGA      .... off
 Hybrid DFT is turned on
   Fraction HF Exchange ScalHFX         ....  0.200000
   Scaling of DF-GGA-X  ScalDFX         ....  0.720000
   Scaling of DF-GGA-C  ScalDFC         ....  0.810000
   Scaling of DF-LDA-C  ScalLDAC        ....  1.000000
   Perturbative correction              ....  0.000000
   Density functional embedding theory  .... OFF
   NL short-range parameter             ....  4.800000


General Settings:
 Integral files         IntName         .... orca
 Hartree-Fock type      HFTyp           .... UHF
 Total Charge           Charge          ....    0
 Multiplicity           Mult            ....    2
 Number of Electrons    NEL             ....  215
 Basis Dimension        Dim             ....  470
 Nuclear Repulsion      ENuc            ....   2903.8186932314 Eh

Convergence Acceleration:
 DIIS                   CNVDIIS         .... on
   Start iteration      DIISMaxIt       ....    12
   Startup error        DIISStart       ....  0.200000
   # of expansion vecs  DIISMaxEq       ....     5
   Bias factor          DIISBfac        ....   1.050
   Max. coefficient     DIISMaxC        ....  10.000
 Newton-Raphson         CNVNR           .... off
 SOSCF                  CNVSOSCF        .... off
 Level Shifting         CNVShift        .... on
   Level shift para.    LevelShift      ....    0.2500
   Turn off err/grad.   ShiftErr        ....    0.0010
 Zerner damping         CNVZerner       .... off
 Static damping         CNVDamp         .... on
   Fraction old density DampFac         ....    0.7000
   Max. Damping (<1)    DampMax         ....    0.9800
   Min. Damping (>=0)   DampMin         ....    0.0000
   Turn off err/grad.   DampErr         ....    0.1000
 Fernandez-Rico         CNVRico         .... off

SCF Procedure:
 Maximum # iterations   MaxIter         ....   125
 SCF integral mode      SCFMode         .... Direct
   Integral package                     .... LIBINT
 Reset frequency        DirectResetFreq ....    20
 Integral Threshold     Thresh          ....  2.500e-11 Eh
 Primitive CutOff       TCut            ....  2.500e-12 Eh

Convergence Tolerance:
 Convergence Check Mode ConvCheckMode   .... Total+1el-Energy
 Convergence forced     ConvForced      .... 0
 Energy Change          TolE            ....  1.000e-08 Eh
 1-El. energy change                    ....  1.000e-05 Eh
 DIIS Error             TolErr          ....  5.000e-07


Diagonalization of the overlap matrix:
Smallest eigenvalue                        ... 3.745e-04
Time for diagonalization                   ...    0.032 sec
Threshold for overlap eigenvalues          ... 1.000e-08
Number of eigenvalues below threshold      ... 0
Time for construction of square roots      ...    0.016 sec
Total time needed                          ...    0.049 sec

-------------------
DFT GRID GENERATION
-------------------

General Integration Accuracy     IntAcc      ...  4.340
Radial Grid Type                 RadialGrid  ... Gauss-Chebyshev
Angular Grid (max. acc.)         AngularGrid ... Lebedev-110
Angular grid pruning method      GridPruning ... 3 (G Style)
Weight generation scheme         WeightScheme... Becke
Basis function cutoff            BFCut       ...    1.0000e-11
Integration weight cutoff        WCut        ...    1.0000e-14
Grids for H and He will be reduced by one unit

# of grid points (after initial pruning)     ...  77574 (   0.1 sec)
# of grid points (after weights+screening)   ...  66600 (   1.3 sec)
nearest neighbour list constructed           ...    0.0 sec
Grid point re-assignment to atoms done       ...    0.0 sec
Grid point division into batches done        ...    0.0 sec
Reduced shell lists constructed in    1.1 sec

Total number of grid points                  ...    66600
Total number of batches                      ...     1075
Average number of points per batch           ...       61
Average number of grid points per atom       ...      994
Average number of shells per batch           ...   116.32 (47.29%)
Average number of basis functions per batch  ...   209.42 (44.56%)
Average number of large shells per batch     ...    76.05 (65.38%)
Average number of large basis fcns per batch ...   136.98 (65.41%)
Maximum spatial batch extension              ...  19.34, 20.13, 20.57 au
Average spatial batch extension              ...   2.73,  3.05,  3.05 au

Time for grid setup =    2.461 sec

------------------------------
INITIAL GUESS: MODEL POTENTIAL
------------------------------
Loading Hartree-Fock densities                     ... done
Calculating cut-offs                               ... done
Setting up the integral package                    ... done
Initializing the effective Hamiltonian             ... done
Starting the Coulomb interaction                   ... done (   2.4 sec)
Reading the grid                                   ... done
Mapping shells                                     ... done
Starting the XC term evaluation                    ... done (   1.6 sec)
  promolecular density results
     # of electrons  =    214.985426292
     EX              =   -167.892487701
     EC              =     -7.214866121
     EX+EC           =   -175.107353823
Transforming the Hamiltonian                       ... done (   0.0 sec)
Diagonalizing the Hamiltonian                      ... done (   0.0 sec)
Back transforming the eigenvectors                 ... done (   0.0 sec)
Now organizing SCF variables                       ... done
                      ------------------
                      INITIAL GUESS DONE (   6.5 sec)
                      ------------------
--------------
SCF ITERATIONS
--------------
ITER       Energy         Delta-E        Max-DP      RMS-DP      [F,P]     Damp
               ***  Starting incremental Fock matrix formation  ***
  0  -1236.2726328500   0.000000000000 0.05436782  0.00098202  0.2689103 0.7000
  1  -1236.6548479999  -0.382215149846 0.03260446  0.00066786  0.1082063 0.7000
                               ***Turning on DIIS***
  2  -1236.8047003678  -0.149852367889 0.03783116  0.00107731  0.0332727 0.0000
  3  -1237.0296022458  -0.224901878046 0.02822634  0.00049735  0.0556136 0.0000

