
                                 *****************
                                 * O   R   C   A *
                                 *****************

           --- An Ab Initio, DFT and Semiempirical electronic structure package ---

                  #######################################################
                  #                        -***-                        #
                  #          Department of theory and spectroscopy      #
                  #               Directorship: Frank Neese             #
                  #        Max Planck Institute fuer Kohlenforschung    #
                  #                Kaiser Wilhelm Platz 1               #
                  #                 D-45470 Muelheim/Ruhr               #
                  #                      Germany                        #
                  #                                                     #
                  #                  All rights reserved                #
                  #                        -***-                        #
                  #######################################################


                         Program Version 4.2.1 -  RELEASE  -


 With contributions from (in alphabetic order):
   Daniel Aravena         : Magnetic Suceptibility
   Michael Atanasov       : Ab Initio Ligand Field Theory (pilot matlab implementation)
   Alexander A. Auer      : GIAO ZORA, VPT2
   Ute Becker             : Parallelization
   Giovanni Bistoni       : ED, misc. LED, open-shell LED, HFLD
   Martin Brehm           : Molecular dynamics
   Dmytro Bykov           : SCF Hessian
   Vijay G. Chilkuri      : MRCI spin determinant printing, contributions to CSF-ICE
   Dipayan Datta          : RHF DLPNO-CCSD density
   Achintya Kumar Dutta   : EOM-CC, STEOM-CC
   Dmitry Ganyushin       : Spin-Orbit,Spin-Spin,Magnetic field MRCI
   Miquel Garcia          : C-PCM Hessian, Gaussian charge scheme
   Yang Guo               : DLPNO-NEVPT2, CIM, IAO-localization
   Andreas Hansen         : Spin unrestricted coupled pair/coupled cluster methods
   Benjamin Helmich-Paris : CASSCF linear response (MC-RPA)
   Lee Huntington         : MR-EOM, pCC
   Robert Izsak           : Overlap fitted RIJCOSX, COSX-SCS-MP3, EOM
   Christian Kollmar      : KDIIS, OOCD, Brueckner-CCSD(T), CCSD density
   Simone Kossmann        : Meta GGA functionals, TD-DFT gradient, OOMP2, MP2 Hessian
   Martin Krupicka        : AUTO-CI
   Lucas Lang             : DCDCAS
   Dagmar Lenk            : GEPOL surface, SMD
   Dimitrios Liakos       : Extrapolation schemes; Compound Job, initial MDCI parallelization
   Dimitrios Manganas     : Further ROCIS development; embedding schemes
   Dimitrios Pantazis     : SARC Basis sets
   Taras Petrenko         : DFT Hessian,TD-DFT gradient, ASA, ECA, R-Raman, ABS, FL, XAS/XES, NRVS
   Peter Pinski           : DLPNO-MP2, DLPNO-MP2 Gradient
   Christoph Reimann      : Effective Core Potentials
   Marius Retegan         : Local ZFS, SOC
   Christoph Riplinger    : Optimizer, TS searches, QM/MM, DLPNO-CCSD(T), (RO)-DLPNO pert. Triples
   Tobias Risthaus        : Range-separated hybrids, TD-DFT gradient, RPA, STAB
   Michael Roemelt        : Original ROCIS implementation
   Masaaki Saitow         : Open-shell DLPNO-CCSD energy and density
   Barbara Sandhoefer     : DKH picture change effects
   Avijit Sen             : IP-ROCIS
   Kantharuban Sivalingam : CASSCF convergence, NEVPT2, FIC-MRCI
   Bernardo de Souza      : ESD, SOC TD-DFT
   Georgi Stoychev        : AutoAux, RI-MP2 NMR
   Willem Van den Heuvel  : Paramagnetic NMR
   Boris Wezisla          : Elementary symmetry handling
   Frank Wennmohs         : Technical directorship


 We gratefully acknowledge several colleagues who have allowed us to
 interface, adapt or use parts of their codes:
   Stefan Grimme, W. Hujo, H. Kruse,             : VdW corrections, initial TS optimization,
                  C. Bannwarth                     DFT functionals, gCP, sTDA/sTD-DF
   Ed Valeev, F. Pavosevic, A. Kumar             : LibInt (2-el integral package), F12 methods
   Garnet Chan, S. Sharma, J. Yang, R. Olivares  : DMRG
   Ulf Ekstrom                                   : XCFun DFT Library
   Mihaly Kallay                                 : mrcc  (arbitrary order and MRCC methods)
   Andreas Klamt, Michael Diedenhofen            : otool_cosmo (COSMO solvation model)
   Jiri Pittner, Ondrej Demel                    : Mk-CCSD
   Frank Weinhold                                : gennbo (NPA and NBO analysis)
   Christopher J. Cramer and Donald G. Truhlar   : smd solvation model
   Lars Goerigk                                  : TD-DFT with DH, B97 family of functionals
   V. Asgeirsson, H. Jonsson                     : NEB implementation
   FAccTs GmbH                                   : IRC, NEB, NEB-TS, Multilevel, MM, QM/MM, CI optimization
   S Lehtola, MJT Oliveira, MAL Marques          : LibXC Library


 Your calculation uses the libint2 library for the computation of 2-el integrals
 For citations please refer to: http://libint.valeyev.net

 Your ORCA version has been built with support for libXC version: 4.2.3
 For citations please refer to: https://tddft.org/programs/libxc/

 This ORCA versions uses:
   CBLAS   interface :  Fast vector & matrix operations
   LAPACKE interface :  Fast linear algebra routines
   SCALAPACK package :  Parallel linear algebra routines


Your calculation utilizes the atom-pairwise dispersion correction
with the Becke-Johnson damping scheme (D3BJ)
Cite in your paper:
S.Grimme, S.Ehrlich, L.Goerigk, J Comput Chem, (2011), 32, 1456–1465 
S.Grimme, J.Antony, S.Ehrlich and H.Krieg, J.Chem.Phys., 132, (2010), 154104 
   

----- Orbital basis set information -----
Your calculation utilizes the basis: def2-TZVP
   F. Weigend and R. Ahlrichs, Phys. Chem. Chem. Phys. 7, 3297 (2005).

----- AuxJ basis set information -----
Your calculation utilizes the auxiliary basis: def2/J
   F. Weigend, Phys. Chem. Chem. Phys. 8, 1057 (2006).

================================================================================
                                        WARNINGS
                       Please study these warnings very carefully!
================================================================================


INFO   : the flag for use of LIBINT has been found!

================================================================================
                                       INPUT FILE
================================================================================
NAME = orca.inp
|  1> ! engrad UHF revPBE def2-TZVP def2/J D3BJ slowconv 
|  2> %scf Convergence Tight 
|  3> SmearTemp 5000.0 
|  4> maxiter 500 
|  5>   Rotate 
|  6>   {  1,   7,      28.37, 0, 0} 
|  7>   {  6,   9,      54.55, 0, 0} 
|  8>   {  2,  10,      27.42, 0, 0} 
|  9>   {  0,  14,      8.014, 1, 1} 
| 10>   {  3,  15,       35.3, 1, 1} 
| 11>   {  5,  13,      51.31, 1, 1} 
| 12>   {  2,  10,      17.84, 1, 1} 
| 13>   {  1,  11,      59.83, 1, 1} 
| 14> end 
| 15>  
| 16> end 
| 17>  
| 18> *xyz 0 1 
| 19> C   0.0 0.0 0.0
| 20> O   0.5 0.0 0.0
| 21> *
| 22> 
| 23>                          ****END OF INPUT****
================================================================================

                     *******************************
                     * Energy+Gradient Calculation *
                     *******************************

---------------------------------
CARTESIAN COORDINATES (ANGSTROEM)
---------------------------------
  C      0.000000    0.000000    0.000000
  O      0.500000    0.000000    0.000000

----------------------------
CARTESIAN COORDINATES (A.U.)
----------------------------
  NO LB      ZA    FRAG     MASS         X           Y           Z
   0 C     6.0000    0    12.011    0.000000    0.000000    0.000000
   1 O     8.0000    0    15.999    0.944863    0.000000    0.000000

--------------------------------
INTERNAL COORDINATES (ANGSTROEM)
--------------------------------
 C      0   0   0     0.000000000000     0.00000000     0.00000000
 O      1   0   0     0.500000000000     0.00000000     0.00000000

---------------------------
INTERNAL COORDINATES (A.U.)
---------------------------
 C      0   0   0     0.000000000000     0.00000000     0.00000000
 O      1   0   0     0.944863066961     0.00000000     0.00000000

---------------------
BASIS SET INFORMATION
---------------------
There are 2 groups of distinct atoms

 Group   1 Type C   : 11s6p2d1f contracted to 5s3p2d1f pattern {62111/411/11/1}
 Group   2 Type O   : 11s6p2d1f contracted to 5s3p2d1f pattern {62111/411/11/1}

Atom   0C    basis set group =>   1
Atom   1O    basis set group =>   2
---------------------------------
AUXILIARY/J BASIS SET INFORMATION
---------------------------------
There are 2 groups of distinct atoms

 Group   1 Type C   : 12s5p4d2f1g contracted to 6s4p3d1f1g pattern {711111/2111/211/2/1}
 Group   2 Type O   : 12s5p4d2f1g contracted to 6s4p3d1f1g pattern {711111/2111/211/2/1}

Atom   0C    basis set group =>   1
Atom   1O    basis set group =>   2

Checking for AutoStart:
The File: orca.gbw exists
Trying to determine its content:
     ... Fine, the file contains calculation information
     ... Fine, the calculation information was read
     ... Fine, the file contains a basis set
     ... Fine, the basis set was read
     ... Fine, the file contains a geometry
     ... Fine, the geometry was read
     ... Fine, the file contains a set of orbitals
     ... Fine, the orbitals can be read
     => possible old guess file was deleted
     => GBW file was renamed to GES file
     => GES file is set as startup file
     => Guess is set to MORead
     ... now leaving AutoStart

------------------------------------------------------------------------------
                           ORCA GTO INTEGRAL CALCULATION
                           -- RI-GTO INTEGRALS CHOSEN --
------------------------------------------------------------------------------

                         BASIS SET STATISTICS AND STARTUP INFO

Gaussian basis set:
 # of primitive gaussian shells          ...   40
 # of primitive gaussian functions       ...   92
 # of contracted shells                  ...   22
 # of contracted basis functions         ...   62
 Highest angular momentum                ...    3
 Maximum contraction depth               ...    6
Auxiliary gaussian basis set:
 # of primitive gaussian shells          ...   48
 # of primitive gaussian functions       ...  140
 # of contracted shells                  ...   30
 # of contracted aux-basis functions     ...   98
 Highest angular momentum                ...    4
 Maximum contraction depth               ...    7
Ratio of auxiliary to basis functions    ...  1.58
Integral package used                  ... LIBINT
 One Electron integrals                  ... done
 Ordering auxiliary basis shells         ... done
 Integral threshhold             Thresh  ...  2.500e-11
 Primitive cut-off               TCut    ...  2.500e-12
 Pre-screening matrix                    ... done
 Shell pair data                         ... 
 Ordering of the shell pairs             ... done (   0.000 sec) 253 of 253 pairs
 Determination of significant pairs      ... done (   0.000 sec)
 Creation of shell pair data             ... done (   0.000 sec)
 Storage of shell pair data              ... done (   0.000 sec)
 Shell pair data done in (   0.000 sec)
 Computing two index integrals           ... done
 Cholesky decomposition of the V-matrix  ... done


Timings:
 Total evaluation time                   ...   0.105 sec (  0.002 min)
 One electron matrix time                ...   0.004 sec (  0.000 min) =  3.9%
 Schwartz matrix evaluation time         ...   0.078 sec (  0.001 min) = 74.4%
 Two index repulsion integral time       ...   0.000 sec (  0.000 min) =  0.3%
 Cholesky decomposition of V             ...   0.000 sec (  0.000 min) =  0.3%
 Three index repulsion integral time     ...   0.000 sec (  0.000 min) =  0.0%

-------------------------------------------------------------------------------
                                 ORCA SCF
-------------------------------------------------------------------------------

------------
SCF SETTINGS
------------
Hamiltonian:
 Density Functional     Method          .... DFT(GTOs)
 Exchange Functional    Exchange        .... PBE
   PBE kappa parameter   XKappa         ....  1.245000
   PBE mue parameter    XMuePBE         ....  0.219520
 Correlation Functional Correlation     .... PBE
   PBE beta parameter  CBetaPBE         ....  0.066725
 LDA part of GGA corr.  LDAOpt          .... PW91-LDA
 Gradients option       PostSCFGGA      .... off
   Density functional embedding theory  .... OFF
   NL short-range parameter             ....  3.700000
 RI-approximation to the Coulomb term is turned on
   Number of auxiliary basis functions  .... 98


General Settings:
 Integral files         IntName         .... orca
 Hartree-Fock type      HFTyp           .... UHF
 Total Charge           Charge          ....    0
 Multiplicity           Mult            ....    1
 Number of Electrons    NEL             ....   14
 Basis Dimension        Dim             ....   62
 Nuclear Repulsion      ENuc            ....     50.8010119968 Eh

Convergence Acceleration:
 DIIS                   CNVDIIS         .... on
   Start iteration      DIISMaxIt       ....     0
   Startup error        DIISStart       ....  0.200000
   # of expansion vecs  DIISMaxEq       ....     5
   Bias factor          DIISBfac        ....   1.050
   Max. coefficient     DIISMaxC        ....  10.000
 Newton-Raphson         CNVNR           .... off
 SOSCF                  CNVSOSCF        .... off
 Level Shifting         CNVShift        .... on
   Level shift para.    LevelShift      ....    0.2500
   Turn off err/grad.   ShiftErr        ....    0.0000
 Zerner damping         CNVZerner       .... off
 Static damping         CNVDamp         .... on
   Fraction old density DampFac         ....    0.8500
   Max. Damping (<1)    DampMax         ....    0.9800
   Min. Damping (>=0)   DampMin         ....    0.0000
   Turn off err/grad.   DampErr         ....    0.0300
 Fernandez-Rico         CNVRico         .... off

SCF Procedure:
 Maximum # iterations   MaxIter         ....   500
 SCF integral mode      SCFMode         .... Direct
   Integral package                     .... LIBINT
 Reset frequency        DirectResetFreq ....    20
 Integral Threshold     Thresh          ....  2.500e-11 Eh
 Primitive CutOff       TCut            ....  2.500e-12 Eh

Convergence Tolerance:
 Convergence Check Mode ConvCheckMode   .... Total+1el-Energy
 Convergence forced     ConvForced      .... 0
 Energy Change          TolE            ....  1.000e-08 Eh
 1-El. energy change                    ....  1.000e-05 Eh
 DIIS Error             TolErr          ....  5.000e-07


Diagonalization of the overlap matrix:
Smallest eigenvalue                        ... 8.936e-05
Time for diagonalization                   ...    0.001 sec
Threshold for overlap eigenvalues          ... 1.000e-08
Number of eigenvalues below threshold      ... 0
Time for construction of square roots      ...    0.000 sec
Total time needed                          ...    0.001 sec

---------------------
INITIAL GUESS: MOREAD
---------------------
Guess MOs are being read from file: orca.ges
Input Geometry matches current geometry (good)
Input basis set matches current basis set (good)
MOs were renormalized
MOs were reorthogonalized (Cholesky)
-----------------
ORBITAL ROTATIONS
-----------------
  Rotation   1(0)    7(0) cos(t)= 0.879897  sin(t)= 0.475164
  Rotation   6(0)    9(0) cos(t)= 0.579992  sin(t)= 0.814622
  Rotation   2(0)   10(0) cos(t)= 0.887655  sin(t)= 0.460510
  Rotation   0(1)   14(1) cos(t)= 0.990234  sin(t)= 0.139415
  Rotation   3(1)   15(1) cos(t)= 0.816138  sin(t)= 0.577858
  Rotation   5(1)   13(1) cos(t)= 0.625106  sin(t)= 0.780540
  Rotation   2(1)   10(1) cos(t)= 0.951916  sin(t)= 0.306360
  Rotation   1(1)   11(1) cos(t)= 0.502567  sin(t)= 0.864538
                      ------------------
                      INITIAL GUESS DONE (   0.0 sec)
                      ------------------
-------------------
DFT GRID GENERATION
-------------------

General Integration Accuracy     IntAcc      ...  4.340
Radial Grid Type                 RadialGrid  ... Gauss-Chebyshev
Angular Grid (max. acc.)         AngularGrid ... Lebedev-110
Angular grid pruning method      GridPruning ... 3 (G Style)
Weight generation scheme         WeightScheme... Becke
Basis function cutoff            BFCut       ...    1.0000e-11
Integration weight cutoff        WCut        ...    1.0000e-14
Grids for H and He will be reduced by one unit

# of grid points (after initial pruning)     ...   3372 (   0.0 sec)
# of grid points (after weights+screening)   ...   3337 (   0.0 sec)
nearest neighbour list constructed           ...    0.0 sec
Grid point re-assignment to atoms done       ...    0.0 sec
Grid point division into batches done        ...    0.0 sec
Reduced shell lists constructed in    0.0 sec

Total number of grid points                  ...     3337
Total number of batches                      ...       53
Average number of points per batch           ...       62
Average number of grid points per atom       ...     1668
Average number of shells per batch           ...    18.80 (85.44%)
Average number of basis functions per batch  ...    54.98 (88.68%)
Average number of large shells per batch     ...    17.81 (94.78%)
Average number of large basis fcns per batch ...    52.22 (94.98%)
Maximum spatial batch extension              ...  19.11, 25.60, 31.36 au
Average spatial batch extension              ...   5.48,  6.97,  7.12 au

Time for grid setup =    0.013 sec

--------------
SCF ITERATIONS
--------------
ITER       Energy         Delta-E        Max-DP      RMS-DP      [F,P]     Damp
               ***  Starting incremental Fock matrix formation  ***
  0    -93.1506429324   0.00000000000015.72502858  0.30251853  4.0233047 0.8500
  1    -95.8231039022  -2.67246096977213.34474224  0.25700369  3.2714866 0.8500
                               ***Turning on DIIS***
  2    -97.8997190733  -2.07661517113211.38536957  0.21919368  2.6669792 0.8500
  3    -99.5418385074  -1.642119434055 9.77224807  0.18819083  2.1907141 0.8500
  4   -100.8666530538  -1.324814546449 8.39579262  0.16206797  1.8225822 0.8500
  5   -101.9429392155  -1.076286161693 7.17645940  0.13878000  1.5296582 0.8500
  6   -102.8402473933  -0.897308177841 6.10552667  0.11814689  1.2878912 0.8500
  7   -103.5983865256  -0.758139132250 5.17779526  0.10015504  1.0854893 0.8500
  8   -104.2425137276  -0.644127202031 4.39352013  0.08495886  0.9148987 0.8500
  9   -104.7863240923  -0.543810364650 3.73594784  0.07226556  0.7718779 0.8500
 10   -105.2446114067  -0.458287314473 3.17913278  0.06153255  0.6521532 0.8500
 11   -105.6315458387  -0.386934431978 2.70362195  0.05235520  0.5516496 0.8500
 12   -105.9589928780  -0.327447039272 2.29717413  0.04449498  0.4670049 0.8500
 13   -106.2364771469  -0.277484268947 1.95133475  0.03780102  0.3955636 0.8500
 14   -106.4716910275  -0.235213880546 1.65805734  0.03212535  0.3352133 0.8500
 15   -106.6710960991  -0.199405071621 1.40926819  0.02731155  0.2842034 0.8500
 16   -106.8402001663  -0.169104067234 1.19781633  0.02321893  0.2410558 0.8500
 17   -106.9836708827  -0.143470716313 1.01793455  0.01973523  0.2045283 0.8500
 18   -107.1054388321  -0.121767949419 0.86500045  0.01677197  0.1735832 0.8500
 19   -107.2088121821  -0.103373350035 0.73509301  0.01425429  0.1473536 0.8500
               *** Restarting incremental Fock matrix formation ***
                                   *** Resetting DIIS ***
 20   -107.2965847968  -0.087772614694 0.61959143  0.01196808  0.1251121 0.8500
 21   -107.3712109253  -0.074626128468 0.52831553  0.01021190  0.1061579 0.8500
 22   -107.4345212887  -0.063310363399 0.45253414  0.00877338  0.0901353 0.8500
 23   -107.4882486057  -0.053727317040 0.38590866  0.00749739  0.0765734 0.8500
 24   -107.5338939006  -0.045645294884 0.32788239  0.00637454  0.0650628 0.8500
 25   -107.5726897261  -0.038795825462 0.27776754  0.00539629  0.0552843 0.8500
 26   -107.6056681745  -0.032978448432 0.23567310  0.00457637  0.0469739 0.8500
 27   -107.6336932710  -0.028025096511 0.20043414  0.00389281  0.0399143 0.8500
 28   -107.6575074458  -0.023814174751 0.17054756  0.00331355  0.0339181 0.8500
 29   -107.6777451562  -0.020237710488 0.96664757  0.01878324  0.0288242 0.0000
 30   -107.7923762762  -0.114631119971 0.00177169  0.00006754  0.0006094 0.0000
 31   -107.7923763283  -0.000000052074 0.00019619  0.00000622  0.0001011 0.0000
 32   -107.7923763398  -0.000000011555 0.00007526  0.00000294  0.0000354 0.0000
 33   -107.7923763417  -0.000000001895 0.00003214  0.00000132  0.0000040 0.0000
                 **** Energy Check signals convergence ****

 Fermi smearing  (ALPHA): E(HOMO(Eh)) = -0.240032 MUE =  0.036814 gap=  15.149 eV
 Fermi smearing   (BETA): E(HOMO(Eh)) = -0.240033 MUE =  0.036813 gap=  15.149 eV

N_FOD(alpha) =  0.000000
 N_FOD(beta) =  0.000000
       N_FOD =  0.000000

               *****************************************************
               *                     SUCCESS                       *
               *           SCF CONVERGED AFTER  34 CYCLES          *
               *****************************************************

Setting up the final grid:

General Integration Accuracy     IntAcc      ...  4.670
Radial Grid Type                 RadialGrid  ... Gauss-Chebyshev
Angular Grid (max. acc.)         AngularGrid ... Lebedev-302
Angular grid pruning method      GridPruning ... 3 (G Style)
Weight generation scheme         WeightScheme... Becke
Basis function cutoff            BFCut       ...    1.0000e-11
Integration weight cutoff        WCut        ...    1.0000e-14
Grids for H and He will be reduced by one unit

# of grid points (after initial pruning)     ...  12424 (   0.0 sec)
# of grid points (after weights+screening)   ...  12367 (   0.0 sec)
nearest neighbour list constructed           ...    0.0 sec
Grid point re-assignment to atoms done       ...    0.0 sec
Grid point division into batches done        ...    0.1 sec
Reduced shell lists constructed in    0.1 sec

Total number of grid points                  ...    12367
Total number of batches                      ...      194
Average number of points per batch           ...       63
Average number of grid points per atom       ...     6184
Average number of shells per batch           ...    17.09 (77.67%)
Average number of basis functions per batch  ...    49.84 (80.38%)
Average number of large shells per batch     ...    15.87 (92.89%)
Average number of large basis fcns per batch ...    46.58 (93.47%)
Maximum spatial batch extension              ...  20.23, 24.37, 22.15 au
Average spatial batch extension              ...   3.67,  4.19,  4.15 au

Final grid set up in    0.1 sec
Final integration                            ... done (   0.1 sec)
Change in XC energy                          ...     0.004586878
Integrated number of electrons               ...    13.999973314
Previous integrated no of electrons          ...    14.003631565

----------------
TOTAL SCF ENERGY
----------------

Total Energy       :         -107.78778946 Eh           -2933.05486 eV

Components:
Nuclear Repulsion  :           50.80101200 Eh            1382.36581 eV
Electronic Energy  :         -158.58880146 Eh           -4315.42068 eV
One Electron Energy:         -240.50394088 Eh           -6544.44494 eV
Two Electron Energy:           81.91513942 Eh            2229.02427 eV

Virial components:
Potential Energy   :         -233.08569628 Eh           -6342.58425 eV
Kinetic Energy     :          125.29790682 Eh            3409.52938 eV
Virial Ratio       :            1.86025212


DFT components:
N(Alpha)           :        6.999986656949 electrons
N(Beta)            :        6.999986656939 electrons
N(Total)           :       13.999973313888 electrons
E(X)               :      -14.798525253678 Eh       
E(C)               :       -0.483714232527 Eh       
E(XC)              :      -15.282239486205 Eh       
DFET-embed. en.    :        0.000000000000 Eh       

---------------
SCF CONVERGENCE
---------------

  Last Energy change         ...   -2.8692e-10  Tolerance :   1.0000e-08
  Last MAX-Density change    ...    1.6174e-05  Tolerance :   1.0000e-07
  Last RMS-Density change    ...    5.6387e-07  Tolerance :   5.0000e-09
  Last DIIS Error            ...    6.2615e-07  Tolerance :   5.0000e-07

             **** THE GBW FILE WAS UPDATED (orca.gbw) ****
             **** DENSITY FILE WAS UPDATED (orca.scfp) ****
             **** ENERGY FILE WAS UPDATED (orca.en.tmp) ****
             **** THE GBW FILE WAS UPDATED (orca.gbw) ****
             **** DENSITY FILE WAS UPDATED (orca.scfp) ****
----------------
ORBITAL ENERGIES
----------------
                 SPIN UP ORBITALS
  NO   OCC          E(Eh)            E(eV) 
   0   1.0000     -19.163103      -521.4545 
   1   1.0000     -10.401853      -283.0488 
   2   1.0000      -0.989289       -26.9199 
   3   1.0000      -0.897626       -24.4256 
   4   1.0000      -0.897626       -24.4256 
   5   1.0000      -0.273297        -7.4368 
   6   1.0000      -0.240032        -6.5316 
   7   0.0000       0.066695         1.8149 
   8   0.0000       0.093886         2.5548 
   9   0.0000       0.093886         2.5548 
  10   0.0000       0.193447         5.2640 
  11   0.0000       0.308969         8.4075 
  12   0.0000       0.308969         8.4075 
  13   0.0000       0.381453        10.3799 
  14   0.0000       0.552346        15.0301 
  15   0.0000       0.552346        15.0301 
  16   0.0000       0.593585        16.1523 
  17   0.0000       0.593647        16.1539 
  18   0.0000       0.593673        16.1547 
  19   0.0000       0.918519        24.9942 
  20   0.0000       1.060679        28.8625 
  21   0.0000       1.060679        28.8626 
  22   0.0000       1.235686        33.6247 
  23   0.0000       1.242358        33.8063 
  24   0.0000       1.242358        33.8063 
  25   0.0000       1.432603        38.9831 
  26   0.0000       1.622935        44.1623 
  27   0.0000       1.624532        44.2058 
  28   0.0000       2.104075        57.2548 
  29   0.0000       2.208471        60.0956 
  30   0.0000       2.208471        60.0956 
  31   0.0000       2.534964        68.9799 
  32   0.0000       2.545235        69.2594 
  33   0.0000       2.545235        69.2594 
  34   0.0000       2.722153        74.0736 
  35   0.0000       2.722168        74.0740 
  36   0.0000       2.987474        81.2933 
  37   0.0000       2.987474        81.2933 
  38   0.0000       3.160287        85.9958 
  39   0.0000       3.338359        90.8414 
  40   0.0000       3.338359        90.8414 
  41   0.0000       3.402460        92.5856 
  42   0.0000       3.402655        92.5909 
  43   0.0000       3.614960        98.3681 
  44   0.0000       4.566891       124.2714 
  45   0.0000       4.805827       130.7732 
  46   0.0000       4.805827       130.7732 
  47   0.0000       5.421979       147.5396 
  48   0.0000       5.421979       147.5396 
  49   0.0000       5.887048       160.1947 
  50   0.0000       5.900625       160.5642 
  51   0.0000       6.299976       171.4310 
  52   0.0000       6.818869       185.5509 
  53   0.0000       6.818869       185.5509 
  54   0.0000       7.199696       195.9137 
  55   0.0000       7.308269       198.8681 
  56   0.0000       7.316697       199.0974 
  57   0.0000       8.629440       234.8190 
  58   0.0000       8.629440       234.8190 
  59   0.0000       9.829283       267.4684 
  60   0.0000      28.677484       780.3540 
  61   0.0000      44.180122      1202.2022 

                 SPIN DOWN ORBITALS
  NO   OCC          E(Eh)            E(eV) 
   0   1.0000     -19.163102      -521.4545 
   1   1.0000     -10.401853      -283.0488 
   2   1.0000      -0.989289       -26.9199 
   3   1.0000      -0.897626       -24.4256 
   4   1.0000      -0.897626       -24.4256 
   5   1.0000      -0.273295        -7.4367 
   6   1.0000      -0.240033        -6.5316 
   7   0.0000       0.066694         1.8148 
   8   0.0000       0.093887         2.5548 
   9   0.0000       0.093887         2.5548 
  10   0.0000       0.193447         5.2640 
  11   0.0000       0.308969         8.4075 
  12   0.0000       0.308969         8.4075 
  13   0.0000       0.381452        10.3798 
  14   0.0000       0.552346        15.0301 
  15   0.0000       0.552346        15.0301 
  16   0.0000       0.593586        16.1523 
  17   0.0000       0.593647        16.1540 
  18   0.0000       0.593673        16.1547 
  19   0.0000       0.918519        24.9942 
  20   0.0000       1.060679        28.8625 
  21   0.0000       1.060679        28.8626 
  22   0.0000       1.235687        33.6247 
  23   0.0000       1.242358        33.8063 
  24   0.0000       1.242358        33.8063 
  25   0.0000       1.432602        38.9831 
  26   0.0000       1.622935        44.1623 
  27   0.0000       1.624532        44.2058 
  28   0.0000       2.104075        57.2548 
  29   0.0000       2.208470        60.0955 
  30   0.0000       2.208470        60.0955 
  31   0.0000       2.534963        68.9799 
  32   0.0000       2.545235        69.2594 
  33   0.0000       2.545235        69.2594 
  34   0.0000       2.722152        74.0735 
  35   0.0000       2.722167        74.0739 
  36   0.0000       2.987473        81.2933 
  37   0.0000       2.987473        81.2933 
  38   0.0000       3.160286        85.9958 
  39   0.0000       3.338358        90.8413 
  40   0.0000       3.338358        90.8413 
  41   0.0000       3.402460        92.5856 
  42   0.0000       3.402654        92.5909 
  43   0.0000       3.614961        98.3681 
  44   0.0000       4.566889       124.2714 
  45   0.0000       4.805828       130.7732 
  46   0.0000       4.805828       130.7732 
  47   0.0000       5.421979       147.5396 
  48   0.0000       5.421979       147.5396 
  49   0.0000       5.887049       160.1948 
  50   0.0000       5.900626       160.5642 
  51   0.0000       6.299976       171.4311 
  52   0.0000       6.818870       185.5509 
  53   0.0000       6.818870       185.5509 
  54   0.0000       7.199697       195.9137 
  55   0.0000       7.308269       198.8681 
  56   0.0000       7.316697       199.0974 
  57   0.0000       8.629440       234.8190 
  58   0.0000       8.629440       234.8190 
  59   0.0000       9.829283       267.4684 
  60   0.0000      28.677484       780.3540 
  61   0.0000      44.180123      1202.2023 

                    ********************************
                    * MULLIKEN POPULATION ANALYSIS *
                    ********************************

------------------------------------------
FOD BASED MULLIKEN REDUCED ORBITAL CHARGES
------------------------------------------
  0 C s       :     0.000000  s :     0.000000
      pz      :     0.000000  p :     0.000000
      px      :     0.000000
      py      :     0.000000
      dz2     :    -0.000000  d :    -0.000000
      dxz     :     0.000000
      dyz     :     0.000000
      dx2y2   :    -0.000000
      dxy     :     0.000000
      f0      :     0.000000  f :    -0.000000
      f+1     :    -0.000000
      f-1     :     0.000000
      f+2     :     0.000000
      f-2     :    -0.000000
      f+3     :    -0.000000
      f-3     :     0.000000
  1 O s       :    -0.000000  s :    -0.000000
      pz      :    -0.000000  p :     0.000000
      px      :     0.000000
      py      :    -0.000000
      dz2     :     0.000000  d :     0.000000
      dxz     :     0.000000
      dyz     :    -0.000000
      dx2y2   :     0.000000
      dxy     :     0.000000
      f0      :     0.000000  f :    -0.000000
      f+1     :    -0.000000
      f-1     :    -0.000000
      f+2     :    -0.000000
      f-2     :    -0.000000
      f+3     :    -0.000000
      f-3     :    -0.000000


                     *******************************
                     * LOEWDIN POPULATION ANALYSIS *
                     *******************************

-------------------------------------------
LOEWDIN ATOMIC CHARGES AND SPIN POPULATIONS
-------------------------------------------
   0 C :   -0.402458    0.000001
   1 O :    0.402458   -0.000001

----------------------------------------------------
LOEWDIN REDUCED ORBITAL CHARGES AND SPIN POPULATIONS
----------------------------------------------------
CHARGE
  0 C s       :     2.947509  s :     2.947509
      pz      :     0.689266  p :     2.858510
      px      :     1.479978
      py      :     0.689266
      dz2     :     0.056824  d :     0.483820
      dxz     :     0.128262
      dyz     :     0.000000
      dx2y2   :     0.170472
      dxy     :     0.128262
      f0      :     0.012305  f :     0.112619
      f+1     :     0.017619
      f-1     :     0.002052
      f+2     :     0.020512
      f-2     :     0.000000
      f+3     :     0.029365
      f-3     :     0.030765
  1 O s       :     3.181039  s :     3.181039
      pz      :     1.061405  p :     3.845211
      px      :     1.722400
      py      :     1.061405
      dz2     :     0.069434  d :     0.413237
      dxz     :     0.067751
      dyz     :     0.000000
      dx2y2   :     0.208302
      dxy     :     0.067751
      f0      :     0.007743  f :     0.158055
      f+1     :     0.043896
      f-1     :     0.001253
      f+2     :     0.012755
      f-2     :     0.000000
      f+3     :     0.073160
      f-3     :     0.019246

SPIN
  0 C s       :     0.000005  s :     0.000005
      pz      :    -0.000000  p :    -0.000004
      px      :    -0.000003
      py      :    -0.000000
      dz2     :     0.000000  d :     0.000000
      dxz     :     0.000000
      dyz     :     0.000000
      dx2y2   :     0.000000
      dxy     :     0.000000
      f0      :    -0.000000  f :     0.000000
      f+1     :     0.000000
      f-1     :    -0.000000
      f+2     :    -0.000000
      f-2     :    -0.000000
      f+3     :     0.000000
      f-3     :     0.000000
  1 O s       :     0.000000  s :     0.000000
      pz      :     0.000000  p :    -0.000001
      px      :    -0.000001
      py      :     0.000000
      dz2     :    -0.000000  d :    -0.000001
      dxz     :    -0.000000
      dyz     :     0.000000
      dx2y2   :    -0.000000
      dxy     :    -0.000000
      f0      :     0.000000  f :     0.000000
      f+1     :     0.000000
      f-1     :    -0.000000
      f+2     :     0.000000
      f-2     :     0.000000
      f+3     :     0.000000
      f-3     :    -0.000000


                      *****************************
                      * MAYER POPULATION ANALYSIS *
                      *****************************

  NA   - Mulliken gross atomic population
  ZA   - Total nuclear charge
  QA   - Mulliken gross atomic charge
  VA   - Mayer's total valence
  BVA  - Mayer's bonded valence
  FA   - Mayer's free valence

  ATOM       NA         ZA         QA         VA         BVA        FA
  0 C      7.4294     6.0000    -1.4294     3.5567     3.5567     0.0000
  1 O      6.5706     8.0000     1.4294     3.5567     3.5567    -0.0000

  Mayer bond orders larger than 0.100000
B(  0-C ,  1-O ) :   3.5567 

-------
TIMINGS
-------

Total SCF time: 0 days 0 hours 0 min 4 sec 

Total time                  ....       4.906 sec
Sum of individual times     ....       4.786 sec  ( 97.6%)

Fock matrix formation       ....       4.607 sec  ( 93.9%)
  Split-RI-J                ....       3.342 sec  ( 72.5% of F)
  XC integration            ....       1.145 sec  ( 24.9% of F)
    Basis function eval.    ....       0.286 sec  ( 24.9% of XC)
    Density eval.           ....       0.232 sec  ( 20.3% of XC)
    XC-Functional eval.     ....       0.145 sec  ( 12.6% of XC)
    XC-Potential eval.      ....       0.438 sec  ( 38.2% of XC)
Diagonalization             ....       0.039 sec  (  0.8%)
Density matrix formation    ....       0.015 sec  (  0.3%)
Population analysis         ....       0.001 sec  (  0.0%)
Initial guess               ....       0.002 sec  (  0.0%)
Orbital Transformation      ....       0.000 sec  (  0.0%)
Orbital Orthonormalization  ....       0.001 sec  (  0.0%)
DIIS solution               ....       0.012 sec  (  0.3%)
Grid generation             ....       0.110 sec  (  2.2%)


-------------------------------------------------------------------------------
                          DFT DISPERSION CORRECTION                            
                                                                               
                              DFTD3 V3.1  Rev 1                                
                          USING Becke-Johnson damping                          
-------------------------------------------------------------------------------
The revPBE functional is recognized
Active option DFTDOPT                   ...         4   

molecular C6(AA) [au] = 100.821596 


            DFT-D V3
 parameters
 s6 scaling factor         :     1.0000 
 a1 scaling factor         :     0.5238 
 s8 scaling factor         :     2.3550 
 a2 scaling factor         :     3.5016 
 ad hoc parameters k1-k3   :    16.0000     1.3333    -4.0000 

 Edisp/kcal,au: -0.711996130502  -0.001134637936 
 E6   /kcal   :  -0.280198044 
 E8   /kcal   :  -0.431798087 
 % E8         :  60.646128302 

-------------------------   ----------------
Dispersion correction           -0.001134638
-------------------------   ----------------


-------------------------   --------------------
FINAL SINGLE POINT ENERGY      -107.788924101776
-------------------------   --------------------

------------------------------------------------------------------------------
                         ORCA SCF GRADIENT CALCULATION
------------------------------------------------------------------------------

Gradient of the Kohn-Sham DFT energy:
Kohn-Sham wavefunction type      ... UKS
Hartree-Fock exchange scaling    ...    0.000
Number of operators              ...    2
Number of atoms                  ...    2
Basis set dimensions             ...   62
Integral neglect threshold       ... 2.5e-11
Integral primitive cutoff        ... 2.5e-12

Nuclear repulsion gradient       ... done
One Electron Gradient            ... done
Pre-screening matrix             ... done
RI-J gradient                    ... done
Exchange-correlation gradient    ... done
Dispersion correction            ... done

------------------
CARTESIAN GRADIENT
------------------

   1   C   :   19.528379995    0.000000007   -0.000000200
   2   O   :  -19.528379995   -0.000000007    0.000000200

Difference to translation invariance:
           :    0.0000000000   -0.0000000000   -0.0000000000

Norm of the cartesian gradient     ...   27.6172998405
RMS gradient                       ...   11.2747154471
MAX gradient                       ...   19.5283799953

-------
TIMINGS
-------

Total SCF gradient time            ...        0.663 sec

One electron gradient       ....       0.007 sec  (  1.0%)
Prescreening matrices       ....       0.105 sec  ( 15.8%)
RI-J Coulomb gradient       ....       0.096 sec  ( 14.5%)
XC gradient                 ....       0.278 sec  ( 41.9%)

                            ***************************************
                            *     ORCA property calculations      *
                            ***************************************

                                    ---------------------
                                    Active property flags
                                    ---------------------
   (+) Dipole Moment


------------------------------------------------------------------------------
                       ORCA ELECTRIC PROPERTIES CALCULATION
------------------------------------------------------------------------------

Dipole Moment Calculation                       ... on
Quadrupole Moment Calculation                   ... off
Polarizability Calculation                      ... off
GBWName                                         ... orca.gbw
Electron density file                           ... orca.scfp
The origin for moment calculation is the CENTER OF MASS  = ( 0.539695,  0.000000  0.000000)

-------------
DIPOLE MOMENT
-------------
                                X             Y             Z
Electronic contribution:      0.56364      -0.00000      -0.00000
Nuclear contribution   :      0.00317       0.00000       0.00000
                        -----------------------------------------
Total Dipole Moment    :      0.56681      -0.00000      -0.00000
                        -----------------------------------------
Magnitude (a.u.)       :      0.56681
Magnitude (Debye)      :      1.44071



--------------------
Rotational spectrum 
--------------------
 
Rotational constants in cm-1:     0.000000     9.828743     9.828743 
Rotational constants in MHz :     0.000000 294658.313449 294658.313449 

 Dipole components along the rotational axes: 
x,y,z [a.u.] :     0.566807    -0.000000    -0.000000 
x,y,z [Debye]:     1.440708    -0.000000    -0.000001 

 

Timings for individual modules:

Sum of individual times         ...        5.727 sec (=   0.095 min)
GTO integral calculation        ...        0.125 sec (=   0.002 min)   2.2 %
SCF iterations                  ...        4.923 sec (=   0.082 min)  86.0 %
SCF Gradient evaluation         ...        0.679 sec (=   0.011 min)  11.8 %
                             ****ORCA TERMINATED NORMALLY****
TOTAL RUN TIME: 0 days 0 hours 0 minutes 5 seconds 919 msec
