9
Lattice="50.0 0.0 0.0 0.0 50.0 0.0 0.0 0.0 50.0" Properties=species:S:1:pos:R:3:dft_forces:R:3 hash_structure=0154021c79357894b4136fd608fefad4 compound=ethanol n_atoms=9 smiles=CCO username=eg475 dft_energy=-4212.509602197413 config_type=ethanol_mol dataset_type=train_compounds_train_configs mol_or_rad=mol filename=train.xyz formula=C2H6O normal_mode_energy=0.23389851991840674 hash=50b506dbeef00fee5a23aceeb7ac0eb9 normal_mode_temperature=T volume=124999.99999999991 pbc="F F F"
C       -0.93401342       0.07042787       0.05111524       0.35621935      -0.69215077      -0.84583725
C        0.53526377      -0.43666892      -0.11341624      -1.69537623       1.01342896       1.25964530
O        1.47668645       0.40662443       0.51842773       0.09388185      -0.42907879       0.50304526
H       -0.97029179       1.04339780      -0.43222764      -0.26811391       0.75111508      -0.10174642
H       -1.72540173      -0.54563499      -0.45458760       0.69424272       0.01945952       0.06152489
H       -1.25920864       0.16104475       1.08421355       0.16950153       0.13283822       0.65941254
H        0.75898998      -0.52668071      -1.13790909       0.31585540      -0.02707780      -2.17009204
H        0.58504100      -1.45214631       0.25502583       0.52405982      -0.53951085       0.82234029
H        1.29887825       1.34328252       0.32358700      -0.19027052      -0.22902357      -0.18829258
9
Lattice="50.0 0.0 0.0 0.0 50.0 0.0 0.0 0.0 50.0" Properties=species:S:1:pos:R:3:dft_forces:R:3 hash_structure=7dc725ab18fb30be6ec96d02e28d7520 compound=ethanol n_atoms=9 smiles=CCO username=eg475 dft_energy=-4212.382677303595 config_type=ethanol_mol dataset_type=train_compounds_train_configs mol_or_rad=mol filename=train.xyz formula=C2H6O normal_mode_energy=0.2622812468975507 hash=20dd98aa3579956a883a2fbcc17bc324 normal_mode_temperature=T volume=124999.99999999991 pbc="F F F"
C       -0.88802072       0.06060793       0.05486546      -1.82137974       1.14730741       0.27619585
C        0.49485110      -0.43523521      -0.15204839       2.07523060      -1.33453545       2.14794091
O        1.46442148       0.40402681       0.53276417      -1.20588866       1.85007915      -0.99181029
H       -0.97513777       1.08043606      -0.37016587       0.01313978      -0.00881765      -0.54248657
H       -1.67147016      -0.56281381      -0.46664849       0.46006482       0.32006171       0.57932885
H       -1.18136739       0.32131032       1.13179012       0.50015276      -1.12804007      -0.86926875
H        0.78478387      -0.61766256      -1.20385640      -0.25828200       0.33747509      -0.20724344
H        0.67463016      -1.43874674       0.37719644      -0.47212836       0.89542114      -0.69055384
H        1.18462887       1.38199853       0.35803587       0.70909079      -2.07895133       0.29789728
9
Lattice="50.0 0.0 0.0 0.0 50.0 0.0 0.0 0.0 50.0" Properties=species:S:1:pos:R:3:dft_forces:R:3 hash_structure=76eb7b48ee170d5f6953e281cbe35509 compound=ethanol n_atoms=9 smiles=CCO username=eg475 dft_energy=-4212.483333724499 config_type=ethanol_mol dataset_type=train_compounds_train_configs mol_or_rad=mol filename=train.xyz formula=C2H6O normal_mode_energy=0.2514977571450767 hash=17e55ef55d3188450172e9bfec8106ca normal_mode_temperature=T volume=124999.99999999991 pbc="F F F"
C       -0.92200929       0.05589267       0.04117520       0.40916016       2.52062381      -0.17060725
C        0.52960468      -0.40238123      -0.11264187      -0.22405186      -2.67512542      -1.39901473
O        1.45887085       0.38783743       0.52389032       0.49116922       1.15823663       0.73667313
H       -1.03309604       1.09985915      -0.47077691       0.03946035      -1.43516326       0.50791836
H       -1.72461025      -0.57806927      -0.32159727      -0.08472493      -0.61704627      -0.53183616
H       -1.15350815       0.26262918       1.09725233       0.14086608      -0.12433207       0.27521048
H        0.81634199      -0.54887272      -1.20932941      -0.52525893       0.41100092       0.55601441
H        0.66675702      -1.48890236       0.26371169      -0.22838553       1.44313271       0.02814950
H        1.32327011       1.33925340       0.30134098      -0.01823456      -0.68132705      -0.00250774
9
Lattice="50.0 0.0 0.0 0.0 50.0 0.0 0.0 0.0 50.0" Properties=species:S:1:pos:R:3:dft_forces:R:3 hash_structure=8bdb30e8f919d5dcdcc8dcc078ec5a7e compound=ethanol n_atoms=9 smiles=CCO username=eg475 dft_energy=-4212.316690758328 config_type=ethanol_mol dataset_type=train_compounds_train_configs mol_or_rad=mol filename=train.xyz formula=C2H6O normal_mode_energy=0.2653240710703874 hash=3a265800513fb616f313b91dc632c023 normal_mode_temperature=T volume=124999.99999999991 pbc="F F F"
C       -0.88441159       0.09092937       0.04598383      -0.47944106      -0.02294854      -0.18808226
C        0.52056676      -0.45132814      -0.09264192       0.10128870      -0.44907803      -2.22102096
O        1.44927441       0.40506357       0.50370797      -0.86546602       2.54328883       0.32348214
H       -0.97379956       1.15187696      -0.33985145       0.08732632      -0.78442405      -0.07180277
H       -1.58196709      -0.58960179      -0.52404559       0.07739593       0.67309914       0.61934397
H       -1.11611979       0.16324753       1.13251669      -0.31759428      -0.27835214      -0.28490773
H        0.79332336      -0.59549936      -1.19685173      -0.41043320       0.38520503       0.61235154
H        0.55621943      -1.52288929       0.23276450       0.32855392       0.67193245       0.80622862
H        1.02948628       1.37156028       0.38111489       1.47836970      -2.73872268       0.40440747
9
Lattice="50.0 0.0 0.0 0.0 50.0 0.0 0.0 0.0 50.0" Properties=species:S:1:pos:R:3:dft_forces:R:3 hash_structure=8c75913cf4e73a946ebe574af5f1a444 compound=ethanol n_atoms=9 smiles=CCO username=eg475 dft_energy=-4212.514124902671 config_type=ethanol_mol dataset_type=train_compounds_train_configs mol_or_rad=mol filename=train.xyz formula=C2H6O normal_mode_energy=0.2258781455973062 hash=e8ac42fa4e607c93e43cb56c8ade8d1e normal_mode_temperature=T volume=124999.99999999991 pbc="F F F"
C       -0.92303882       0.06283800       0.04037496       1.35858627       1.06562746      -0.61261423
C        0.51982093      -0.42909384      -0.11404925      -0.43090537       0.08554760      -1.14079550
O        1.47547037       0.41115689       0.52019705      -0.30754353       0.04474088      -0.14853721
H       -0.96628728       1.10707073      -0.30484871      -0.27752623       0.24884993      -0.07956732
H       -1.68323366      -0.49084016      -0.47023312      -0.51894009      -0.81005504      -0.92292373
H       -1.19924088       0.03520090       1.06471974      -0.29383417       0.18836991       1.63027609
H        0.75569774      -0.66200917      -1.21120578      -0.04596788       0.59395133       0.83411269
H        0.52556849      -1.40211128       0.36220406       0.63970960      -0.56845336       0.53672495
H        1.32801036       1.36435757       0.30489229      -0.12357859      -0.84857873      -0.09667573
9
Lattice="50.0 0.0 0.0 0.0 50.0 0.0 0.0 0.0 50.0" Properties=species:S:1:pos:R:3:dft_forces:R:3 hash_structure=9db04d32d6f7ace314ec7cdbb86e6fa3 compound=ethanol n_atoms=9 smiles=CCO username=eg475 dft_energy=-4212.3132592238535 config_type=ethanol_mol dataset_type=train_compounds_train_configs mol_or_rad=mol filename=train.xyz formula=C2H6O normal_mode_energy=0.2633617836321567 hash=7af5c28dd6200a999870674ecd277138 normal_mode_temperature=T volume=124999.99999999991 pbc="F F F"
C       -0.91093564       0.06684860       0.04700352      -3.12535196       0.79706026       0.18435924
C        0.51407298      -0.41024191      -0.06292130       0.18719857      -1.14125827      -1.29372367
O        1.47277530       0.39496220       0.49211626       0.79505244       1.40592940       0.95820298
H       -1.07867821       1.19820160      -0.22406250       0.68251969      -1.57535536       0.56269116
H       -1.58123207      -0.44239778      -0.75449829       0.89563268       0.33650048       1.23949810
H       -1.43670683      -0.10550798       1.11237289       1.23372981       0.34523632      -2.03372275
H        0.80232462      -0.59829333      -1.12962042      -0.53056793       0.12245253      -0.07869153
H        0.65674367      -1.40256274       0.38780054      -0.29318192      -0.15916061       0.31188323
H        1.36516528       1.28705126       0.11075697       0.15496862      -0.13140474       0.14950324
9
Lattice="50.0 0.0 0.0 0.0 50.0 0.0 0.0 0.0 50.0" Properties=species:S:1:pos:R:3:dft_forces:R:3 hash_structure=3ac09f34660061232fbfe817d75fe5a8 compound=ethanol n_atoms=9 smiles=CCO username=eg475 dft_energy=-4212.397987975932 config_type=ethanol_mol dataset_type=train_compounds_train_configs mol_or_rad=mol filename=train.xyz formula=C2H6O normal_mode_energy=0.3117980421173876 hash=214daf3b6f4034b396004e0e9d17ccc0 normal_mode_temperature=T volume=124999.99999999991 pbc="F F F"
C       -0.92674479       0.05107579       0.03351039       1.98773318       3.07476885       2.12343319
C        0.48202712      -0.41749947      -0.13898366       2.29342752       0.19378808      -0.01590131
O        1.48933252       0.39978876       0.53981607      -1.00842338      -0.01495796      -0.46887325
H       -1.05058547       1.05592651      -0.42879238      -0.06457302      -0.08346838       0.09225140
H       -1.62435598      -0.56190221      -0.39518576      -2.23499137      -2.18665248      -1.23877279
H       -1.08492573       0.17235646       1.14585125      -0.27164170      -0.12224612      -0.79060559
H        0.80386282      -0.52773927      -1.23509675      -0.54057112      -0.19815577       1.02807920
H        0.63026615      -1.33355210       0.44652039      -0.17567529      -0.66909527      -0.63868542
H        1.36068577       1.32874354       0.27967400       0.01471518       0.00601905      -0.09092543
9
Lattice="50.0 0.0 0.0 0.0 50.0 0.0 0.0 0.0 50.0" Properties=species:S:1:pos:R:3:dft_forces:R:3 hash_structure=923ccef13e1fa4c820bbef4c768ab256 compound=ethanol n_atoms=9 smiles=CCO username=eg475 dft_energy=-4212.447273117181 config_type=ethanol_mol dataset_type=train_compounds_train_configs mol_or_rad=mol filename=train.xyz formula=C2H6O normal_mode_energy=0.2929542274386595 hash=7272029a16895deaa70fa24c9fdd8671 normal_mode_temperature=T volume=124999.99999999991 pbc="F F F"
C       -0.88037376       0.08476229       0.06160606      -0.81068348      -1.11071004      -1.89508859
C        0.49704903      -0.45669126      -0.15866272       1.91723680       0.10163337       0.86006669
O        1.43652071       0.41924559       0.54510094      -0.17392864      -3.10555513       0.54838273
H       -0.97599111       1.05988053      -0.41785413      -0.09777859       0.64292913       0.09464908
H       -1.69198942      -0.55406323      -0.42463030       0.68942828       0.40677001       0.72485962
H       -0.95738071       0.13227025       1.13022268      -0.72240733       0.31301782       0.99693957
H        0.87565851      -0.56434741      -1.19710614      -0.56584024      -0.04000521      -0.09506286
H        0.60248995      -1.44185184       0.34739991       0.01892315       0.20446319      -0.27160117
H        1.28873506       1.25880913       0.19075752      -0.25494994       2.58745686      -0.96314506
9
Lattice="50.0 0.0 0.0 0.0 50.0 0.0 0.0 0.0 50.0" Properties=species:S:1:pos:R:3:dft_forces:R:3 hash_structure=6b0c56eb93cdc652cc3a4bfbc517cb47 compound=ethanol n_atoms=9 smiles=CCO username=eg475 dft_energy=-4212.522234208936 config_type=ethanol_mol dataset_type=train_compounds_train_configs mol_or_rad=mol filename=train.xyz formula=C2H6O normal_mode_energy=0.16406958047334425 hash=31aaa2486435c442c8a4c193d154fcc1 normal_mode_temperature=T volume=124999.99999999991 pbc="F F F"
C       -0.94374138       0.06411229       0.04556018       0.12299272       0.80554855      -1.57437557
C        0.50653089      -0.38938091      -0.12843255       0.67026703       0.54806256      -1.12735574
O        1.47897396       0.38498522       0.55164603       0.16678369       1.24222837      -0.38388136
H       -1.20906319       1.03250866      -0.56338950       0.41733649      -1.47285190       1.09954855
H       -1.56393998      -0.77503848      -0.31773964      -0.31844298       0.20308077      -0.12438859
H       -1.14371067       0.18455719       1.10421669      -0.23838867       0.35533756       0.61332066
H        0.79556815      -0.41813812      -1.24370340      -0.51900479      -0.35149215       1.05272673
H        0.59990182      -1.39619572       0.31003481       0.07658562      -0.12215412      -0.17900068
H        1.63123965       1.25016680       0.06602588      -0.37812911      -1.20775963       0.62340599
9
Lattice="50.0 0.0 0.0 0.0 50.0 0.0 0.0 0.0 50.0" Properties=species:S:1:pos:R:3:dft_forces:R:3 hash_structure=66a373259d8a8e26f1d752347720aad2 compound=ethanol n_atoms=9 smiles=CCO username=eg475 dft_energy=-4212.34844956574 config_type=ethanol_mol dataset_type=train_compounds_train_configs mol_or_rad=mol filename=train.xyz formula=C2H6O normal_mode_energy=0.336790826082764 hash=88bb32ac534c72d7305df94e82df455a normal_mode_temperature=T volume=124999.99999999991 pbc="F F F"
C       -0.90073596       0.05221245       0.05755189      -2.06630227       0.09908997       0.07570666
C        0.49402826      -0.42121091      -0.08520643       0.84217458      -1.40866516      -0.27494799
O        1.45738141       0.42674978       0.52467617      -0.14127431       0.67014726      -1.29485934
H       -0.81719764       1.12167359      -0.23860666      -0.68752034       0.12618035       0.74941611
H       -1.59245938      -0.37859032      -0.75234311       0.71339234       0.08071649       1.05179099
H       -1.34572054      -0.18091461       1.10868591       0.54092108       0.89462277      -1.51601052
H        0.66894879      -0.53512222      -1.17422660       0.43149914       0.00131703      -0.06060827
H        0.60083387      -1.43816897       0.33961733       0.23843639       0.11334010       0.10121404
H        1.57469061       1.14807954      -0.15779832       0.12867337      -0.57674880       1.16829833
9
Lattice="50.0 0.0 0.0 0.0 50.0 0.0 0.0 0.0 50.0" Properties=species:S:1:pos:R:3:dft_forces:R:3 hash_structure=941d5ab484773c0ef3eec5555776f43f compound=ethanol n_atoms=9 smiles=CCO username=eg475 dft_energy=-4212.334460335698 config_type=ethanol_mol dataset_type=train_compounds_test_configs mol_or_rad=mol filename=test_for_abcd.xyz formula=C2H6O normal_mode_energy=0.2952733327605905 hash=e0a4382eaa3f2790d49214698871d4d6 normal_mode_temperature=T volume=0.0 pbc="F F F"
C       -0.93835786       0.05329192       0.03960339       0.38817581       1.83827680      -0.26552734
C        0.52433908      -0.39272534      -0.07158082      -0.56207222      -3.32304632      -2.17016308
O        1.47783766       0.39421291       0.50399298      -0.24885849       2.41605227      -0.12622824
H       -0.93293976       1.19559163      -0.19216802      -0.42002129      -1.38847259       0.21266382
H       -1.62135281      -0.45472832      -0.71363193       0.57502644       0.31345408       0.94333063
H       -1.24298996      -0.05845495       1.11434815      -0.29392132       0.01875372      -0.70720550
H        0.81837513      -0.65765195      -1.17043967      -0.60019306       0.66557840       0.99833278
H        0.57133833      -1.39876165       0.39059367       0.22054373       0.07119727       0.23641238
H        1.25927597       1.27516838       0.07697809       0.94132041      -0.61179363       0.87838456
9
Lattice="50.0 0.0 0.0 0.0 50.0 0.0 0.0 0.0 50.0" Properties=species:S:1:pos:R:3:dft_forces:R:3 hash_structure=5ded831e2b857c8b7707a721501c688a compound=ethanol n_atoms=9 smiles=CCO username=eg475 dft_energy=-4212.301827794573 config_type=ethanol_mol dataset_type=train_compounds_test_configs mol_or_rad=mol filename=test_for_abcd.xyz formula=C2H6O normal_mode_energy=0.24830599437319834 hash=383586c761e0a009edd8812542f5797e normal_mode_temperature=T volume=0.0 pbc="F F F"
C       -0.93196940       0.06763456       0.05881055       1.13765842      -0.18724513      -0.28033868
C        0.50426315      -0.40638189      -0.12971940       0.15881231      -0.89078453       2.41293974
O        1.46654292       0.40417599       0.55512699       0.37542336       2.33434095      -2.65743585
H       -1.09073950       1.01725079      -0.45381398      -0.04364584       0.72725041       0.27383099
H       -1.53263303      -0.62086634      -0.49210142      -1.11871265      -1.00351611      -0.44425478
H       -1.20916726       0.05677645       1.11401677      -0.21229629       0.31959245       0.29111951
H        0.74544254      -0.43919481      -1.16512337       0.28869707      -0.30105772      -1.56072011
H        0.61748542      -1.47208807       0.30255402      -0.11780914       1.26209614      -0.54914598
H        1.66358212       1.19222298      -0.14814998      -0.46812724      -2.26067644       2.51400516
9
Lattice="50.0 0.0 0.0 0.0 50.0 0.0 0.0 0.0 50.0" Properties=species:S:1:pos:R:3:dft_forces:R:3 hash_structure=73136f0cab9dc073cf8ae554bef0f249 compound=ethanol n_atoms=9 smiles=CCO username=eg475 dft_energy=-4212.477789687078 config_type=ethanol_mol dataset_type=train_compounds_test_configs mol_or_rad=mol filename=test_for_abcd.xyz formula=C2H6O normal_mode_energy=0.19891907751282706 hash=7384429810ca9213b34ff785e0f24e10 normal_mode_temperature=T volume=0.0 pbc="F F F"
C       -0.94275608       0.05023260       0.03454757      -0.24417468       0.54646926       1.31659956
C        0.48958372      -0.37599414      -0.09207659       1.38260896      -1.14011664      -0.13404186
O        1.49080086       0.38707666       0.53369805       0.45439674       2.00309215      -0.05415293
H       -1.12327670       1.01785208      -0.44693635       0.01199759       0.34221955      -0.10885441
H       -1.59354992      -0.66436021      -0.42833537      -0.59103944      -0.83144226      -0.78224990
H       -1.32558925       0.11084488       1.08037943       0.46142067       0.13810969      -0.13536827
H        0.75460543      -0.43042148      -1.14229515      -0.15107583      -0.08504457      -1.06279122
H        0.71293807      -1.42779476       0.25137437      -0.68917255       0.61385061       0.14309238
H        1.68733779       1.24464396       0.02402052      -0.63496145      -1.58713779       0.81776664
9
Lattice="50.0 0.0 0.0 0.0 50.0 0.0 0.0 0.0 50.0" Properties=species:S:1:pos:R:3:dft_forces:R:3 hash_structure=c894ab15563fcb986f5272adac640a60 compound=ethanol n_atoms=9 smiles=CCO username=eg475 dft_energy=-4212.470369703644 config_type=ethanol_mol dataset_type=train_compounds_test_configs mol_or_rad=mol filename=test_for_abcd.xyz formula=C2H6O normal_mode_energy=0.2850262921977925 hash=0b4f25d9908b6861078b2a95a2e3e5ff normal_mode_temperature=T volume=0.0 pbc="F F F"
C       -0.93655990       0.06690449       0.02975836       1.27004940       1.13907940       1.39435646
C        0.52513583      -0.44547453      -0.10173113      -0.08346406       0.78160683      -1.73290252
O        1.45321414       0.42029217       0.53442961      -0.19118221      -1.72713253       1.07836485
H       -0.97265901       1.17863699      -0.23262251      -0.13525854      -1.22642010      -0.52526568
H       -1.68451181      -0.56718932      -0.44271814      -0.29703052      -0.01543066      -0.52703015
H       -1.16992044       0.13309394       1.10830000      -0.12358544      -0.36471207       0.13081112
H        0.76671231      -0.53096740      -1.19749223      -0.09022323       0.26335340       0.22507559
H        0.70768026      -1.48725367       0.20869567      -0.25268102       0.16055070       0.79212857
H        1.56419430       1.22680642       0.05471136      -0.09662439       0.98910504      -0.83553823
9
Lattice="50.0 0.0 0.0 0.0 50.0 0.0 0.0 0.0 50.0" Properties=species:S:1:pos:R:3:dft_forces:R:3 hash_structure=a0b84141804cf1bb431c9c28c05ad3a6 compound=ethanol n_atoms=9 smiles=CCO username=eg475 dft_energy=-4212.378490633756 config_type=ethanol_mol dataset_type=train_compounds_test_configs mol_or_rad=mol filename=test_for_abcd.xyz formula=C2H6O normal_mode_energy=0.2300082405535932 hash=8b32fd4d5ae14f8080961c3a5f3fcd46 normal_mode_temperature=T volume=0.0 pbc="F F F"
C       -0.93896527       0.06343764       0.04405373       0.04589635       0.94823923      -0.32457208
C        0.53593215      -0.36704699      -0.14561460      -1.14103547      -2.09091893       0.03449675
O        1.47318506       0.35969263       0.54316170      -0.01242918       3.84000422      -0.20215283
H       -1.13915405       0.95914982      -0.65247014      -0.03086164      -0.88959117       0.90629215
H       -1.69557524      -0.74202046      -0.19357125       0.68996321       0.51032411       0.06856813
H       -1.08173863       0.38734609       1.11791807      -0.00667985      -0.21753151      -0.76994335
H        0.76338688      -0.58295492      -1.20614326       0.08310040       0.71846918      -0.46327345
H        0.69549884      -1.35538836       0.28024013      -0.42769500      -0.80429495       0.31592373
H        1.25227235       1.35518149       0.36747842       0.79974118      -2.01470019       0.43466096
9
Lattice="50.0 0.0 0.0 0.0 50.0 0.0 0.0 0.0 50.0" Properties=species:S:1:pos:R:3 hash_structure=ed416a3d698249a953c161ccbb1777dd dataset_type=train_compounds_non_opt compound=ethanol filename=train_compounds_non_opt_for_abcd.xyz smiles=CCO n_atoms=9 formula=C2H6O username=eg475 mol_or_rad=mol hash=5672b4ec3ab697ee19a6e50f778af81b volume=124999.99999999991 config_type=ethanol_mol pbc="F F F"
C       -0.95345500       0.04780400       0.04249900
C        0.48907400      -0.32036300      -0.18855300
O        1.27697800       0.32478400       0.73767300
H       -1.35701300       0.73397500      -0.73322300
H       -1.59332100      -0.86257000       0.02175900
H       -1.07103100       0.59643900       1.01116300
H        0.78785100      -0.13770900      -1.23846200
H        0.58958300      -1.42900900      -0.04134200
H        1.83133400       1.04664800       0.38848600
1
Lattice="50.0 0.0 0.0 0.0 50.0 0.0 0.0 0.0 50.0" Properties=species:S:1:pos:R:3 dft_energy=-1028.4321581399468 config_type=isolated_atom pbc="F F F"
C        0.00000000       0.00000000       0.00000000
1
Lattice="50.0 0.0 0.0 0.0 50.0 0.0 0.0 0.0 50.0" Properties=species:S:1:pos:R:3 dft_energy=-13.547478676206193 config_type=isolated_atom pbc="F F F"
H        0.00000000       0.00000000       0.00000000
1
Lattice="50.0 0.0 0.0 0.0 50.0 0.0 0.0 0.0 50.0" Properties=species:S:1:pos:R:3 dft_energy=-2040.0734198446598 config_type=isolated_atom pbc="F F F"
O        0.00000000       0.00000000       0.00000000
