5
Lattice="50.0 0.0 0.0 0.0 50.0 0.0 0.0 0.0 50.0" Properties=species:S:1:pos:R:3:dft_forces:R:3 smiles=C config_type=methane_mol dft_normal_mode_energy=0.22048103625803253 dft_normal_mode_temperature=300.0 dft_energy=-1100.3124962032573 pbc="F F F"
C       -0.00288992       0.00673045       0.01609493      -1.37576968      -1.08823968      -0.73049414
H       -0.62937464       0.91258898      -0.15163222      -0.33325232      -0.61128996       0.43183470
H       -0.30951985      -0.87622563      -0.61708821      -0.55220630       0.66688746       0.43731525
H        0.07177995      -0.37169216       1.05611860       0.20836592       0.59006313      -0.16465892
H        0.89847992       0.25646142      -0.47813079       2.05286238       0.44257905       0.02600310
5
Lattice="50.0 0.0 0.0 0.0 50.0 0.0 0.0 0.0 50.0" Properties=species:S:1:pos:R:3:dft_forces:R:3 smiles=C config_type=methane_mol dft_normal_mode_energy=0.1614892847184422 dft_normal_mode_temperature=300.0 dft_energy=-1100.3713171556838 pbc="F F F"
C        0.00578696      -0.00037052      -0.00372074       0.44798520       0.60754443       0.72309826
H       -0.64786658       0.88106206      -0.04358991      -0.46661799      -0.06382558      -0.33851544
H       -0.37745680      -0.86925254      -0.51170131      -0.52349193      -0.39316684      -0.99600446
H       -0.02937903      -0.33627097       1.06154780       0.91472678       0.42670726      -0.22487479
H        0.98266926       0.33020883      -0.46086299      -0.37260206      -0.57725927       0.83629644
5
Lattice="50.0 0.0 0.0 0.0 50.0 0.0 0.0 0.0 50.0" Properties=species:S:1:pos:R:3:dft_forces:R:3 smiles=C config_type=methane_mol dft_normal_mode_energy=0.08048219527350114 dft_normal_mode_temperature=300.0 dft_energy=-1100.4504702123415 pbc="F F F"
C        0.00437471       0.00030727       0.00004827       0.43938793       0.72327761       0.76231563
H       -0.73668638       0.80485520      -0.09195331       0.28885133       0.62690628       0.03576164
H       -0.42093262      -0.77488061      -0.59332718      -0.28952937      -1.44554747      -0.56942710
H        0.08554601      -0.27800844       1.07092798      -0.06661510      -0.14854235      -0.24839340
H        1.01686900       0.24570446      -0.38516632      -0.37209480       0.24390594       0.01974323
5
Lattice="50.0 0.0 0.0 0.0 50.0 0.0 0.0 0.0 50.0" Properties=species:S:1:pos:R:3:dft_forces:R:3 smiles=C config_type=methane_mol dft_normal_mode_energy=0.14089900810532002 dft_normal_mode_temperature=300.0 dft_energy=-1100.392566303325 pbc="F F F"
C       -0.00098089       0.01234526      -0.01788130      -0.16378094      -2.26882574       1.60800819
H       -0.67821785       0.85284061      -0.03508944      -0.50064783       0.57106341      -0.25173322
H       -0.42143550      -0.92393226      -0.49669817       0.43008662       1.06092410      -0.32646237
H        0.09316939      -0.34817742       1.04687516      -0.10630848       0.55390312      -0.35786191
H        1.01509919       0.27349586      -0.30095512       0.34065063       0.08293510      -0.67195069
5
Lattice="50.0 0.0 0.0 0.0 50.0 0.0 0.0 0.0 50.0" Properties=species:S:1:pos:R:3:dft_forces:R:3 smiles=C config_type=methane_mol dft_normal_mode_energy=0.12457615461274385 dft_normal_mode_temperature=300.0 dft_energy=-1100.4109345887123 pbc="F F F"
C       -0.00768724      -0.00192530       0.00835536       2.26693273      -0.17919771      -1.90303604
H       -0.62406417       0.85727604      -0.11003524      -1.14128405       1.00417697       0.02254150
H       -0.38430313      -0.84957796      -0.58689505      -0.08938771       0.04153542      -0.08747596
H        0.07828876      -0.30701365       1.02954573       0.19614513      -0.16907640       1.18165054
H        1.01860447       0.32359103      -0.43112011      -1.23240609      -0.69743829       0.78631996
5
Lattice="50.0 0.0 0.0 0.0 50.0 0.0 0.0 0.0 50.0" Properties=species:S:1:pos:R:3:dft_forces:R:3 smiles=C config_type=methane_mol dft_normal_mode_energy=0.10387279077141816 dft_normal_mode_temperature=300.0 dft_energy=-1100.4288728908796 pbc="F F F"
C       -0.00117367       0.00926464       0.00079938       0.12037769      -0.47313141      -1.00162789
H       -0.70465468       0.88912998      -0.10504390       0.53686346      -0.75834983       0.23130775
H       -0.40545457      -0.90541479      -0.54015464       0.33273063       1.02639971      -0.03976710
H        0.08604397      -0.37170183       1.02362319       0.03309365       0.47491263       0.52812986
H        1.03497696       0.27892047      -0.38689187      -1.02306543      -0.26983110       0.28195738
5
Lattice="50.0 0.0 0.0 0.0 50.0 0.0 0.0 0.0 50.0" Properties=species:S:1:pos:R:3:dft_forces:R:3 smiles=C config_type=methane_mol dft_normal_mode_energy=0.1017706896698632 dft_normal_mode_temperature=300.0 dft_energy=-1100.4213028483518 pbc="F F F"
C        0.00373279       0.00197805       0.00109446      -1.49970676      -0.37135836       1.57023220
H       -0.67171814       0.84846579      -0.12919714      -0.34293198       0.37142329       0.29717014
H       -0.39870977      -0.81434239      -0.56676281      -0.31937334      -0.90736680      -0.65243883
H        0.08957594      -0.33392018       1.06566973      -0.06719292       0.41398417      -0.43603598
H        0.93329969       0.27755926      -0.38169599       2.22920500       0.49331771      -0.77892752
5
Lattice="50.0 0.0 0.0 0.0 50.0 0.0 0.0 0.0 50.0" Properties=species:S:1:pos:R:3:dft_forces:R:3 smiles=C config_type=methane_mol dft_normal_mode_energy=0.1318179439306085 dft_normal_mode_temperature=300.0 dft_energy=-1100.4031201980881 pbc="F F F"
C       -0.00218826       0.00226893      -0.01346459       0.05383628       0.36741318       1.78774894
H       -0.71831642       0.88505646      -0.08828656       0.78166733      -0.78984703       0.18377155
H       -0.43860800      -0.86681936      -0.52844725       0.31166803       0.03858698      -0.43624353
H        0.14119352      -0.33324780       1.07547630      -0.56281891       0.56595374      -0.97175437
H        1.03873317       0.28930603      -0.29724131      -0.58435274      -0.18210687      -0.56352259
5
Lattice="50.0 0.0 0.0 0.0 50.0 0.0 0.0 0.0 50.0" Properties=species:S:1:pos:R:3:dft_forces:R:3 smiles=C config_type=methane_mol dft_normal_mode_energy=0.12161645402476076 dft_normal_mode_temperature=300.0 dft_energy=-1100.398091542903 pbc="F F F"
C       -0.00935496      -0.00238174      -0.00348232       2.24081984       1.64218309       1.46452233
H       -0.66435400       0.85483631      -0.12005490      -0.41750814       0.49945085       0.25971953
H       -0.39088150      -0.80071812      -0.54109379      -0.80339112      -2.10868198      -1.55027117
H        0.14504492      -0.31741361       1.04637155      -0.44857675       0.21315072       0.04544861
H        1.01859046       0.29300813      -0.34267085      -0.57134383      -0.24610268      -0.21941931
5
Lattice="50.0 0.0 0.0 0.0 50.0 0.0 0.0 0.0 50.0" Properties=species:S:1:pos:R:3:dft_forces:R:3 smiles=C config_type=methane_mol dft_normal_mode_energy=0.04726864857605118 dft_normal_mode_temperature=300.0 dft_energy=-1100.4853762462385 pbc="F F F"
C        0.00186283       0.00251492      -0.00257258       1.05991706      -0.54153586       0.61913394
H       -0.67962061       0.83499477      -0.07565168      -0.51468015       0.75756585      -0.11737458
H       -0.41361586      -0.84387152      -0.55996791       0.01443077      -0.18462854      -0.31689663
H        0.04996968      -0.31615455       1.07592730       0.24642348       0.29364526      -0.61626382
H        1.01799372       0.29639659      -0.40859605      -0.80609116      -0.32504671       0.43140110
5
Lattice="50.0 0.0 0.0 0.0 50.0 0.0 0.0 0.0 50.0" Properties=species:S:1:pos:R:3:dft_forces:R:3 smiles=C config_type=methane_mol dft_normal_mode_energy=0.0621781959795092 dft_normal_mode_temperature=300.0 dft_energy=-1100.4671192187666 pbc="F F F"
C        0.00108811       0.00035020       0.00679794       0.27545286      -1.19344918      -1.31586891
H       -0.65222374       0.83349599      -0.08449930      -1.01122782       1.18537649      -0.17524225
H       -0.39304212      -0.84300183      -0.61988032       0.09164624       0.33805995       0.48135423
H        0.05970637      -0.27530108       1.04576934       0.26701808      -0.37397301       0.82898920
H        0.96951967       0.28196832      -0.42133649       0.37711064       0.04398575       0.18076773
5
Lattice="50.0 0.0 0.0 0.0 50.0 0.0 0.0 0.0 50.0" Properties=species:S:1:pos:R:3:dft_forces:R:3 smiles=C config_type=methane_mol dft_normal_mode_energy=0.16984236680832943 dft_normal_mode_temperature=300.0 dft_energy=-1100.363782859883 pbc="F F F"
C       -0.00668480      -0.00443387       0.00854200      -0.37876295       0.31547610      -1.36920016
H       -0.63242065       0.87526646      -0.18626420      -0.49852571       0.12675523       0.76781533
H       -0.42293134      -0.82696750      -0.59109587       0.27186969      -0.19750354      -0.11276927
H        0.17523405      -0.31948976       1.00921912      -0.49286209      -0.11405987       1.52102070
H        0.95670265       0.32535874      -0.33258823       1.09828106      -0.13066792      -0.80686659
5
Lattice="50.0 0.0 0.0 0.0 50.0 0.0 0.0 0.0 50.0" Properties=species:S:1:pos:R:3:dft_forces:R:3 smiles=C config_type=methane_mol dft_normal_mode_energy=0.09522524639780898 dft_normal_mode_temperature=300.0 dft_energy=-1100.4364305809347 pbc="F F F"
C       -0.00401474       0.00781710      -0.00471289       1.08823700      -0.89293175      -0.41228179
H       -0.70436546       0.84120388      -0.00385507      -0.13218741       0.50528527      -0.65750804
H       -0.35244066      -0.87520867      -0.58885336      -0.29211838       0.39592050       0.22567708
H        0.06240781      -0.27061280       1.04692627       0.26641118      -0.39312028       0.46039883
H        1.03916355       0.21280127      -0.39700038      -0.93034239       0.38484625       0.38371392
5
Lattice="50.0 0.0 0.0 0.0 50.0 0.0 0.0 0.0 50.0" Properties=species:S:1:pos:R:3:dft_forces:R:3 smiles=C config_type=methane_mol dft_normal_mode_energy=0.0833579091427496 dft_normal_mode_temperature=300.0 dft_energy=-1100.4496952590885 pbc="F F F"
C        0.00625553      -0.00387299       0.00357912      -0.89806280       0.78393464       0.98463529
H       -0.72685347       0.84233782      -0.11329340       0.66143316      -0.18856363       0.23578161
H       -0.41366612      -0.77888545      -0.62715134      -0.13805573      -0.92904700      -0.02402401
H        0.08471542      -0.27761994       1.10640714      -0.09125444       0.04076702      -1.16587903
H        0.97818951       0.26165091      -0.40755650       0.46593982       0.29290898      -0.03051386
5
Lattice="50.0 0.0 0.0 0.0 50.0 0.0 0.0 0.0 50.0" Properties=species:S:1:pos:R:3:dft_forces:R:3 smiles=C config_type=methane_mol dft_normal_mode_energy=0.07876884558920177 dft_normal_mode_temperature=300.0 dft_energy=-1100.4538339516073 pbc="F F F"
C        0.00154073       0.00147557       0.00408835       0.54422407      -0.12578902      -0.34885451
H       -0.73345726       0.80446306      -0.08529806       0.17741158       0.73801994      -0.06874909
H       -0.40754711      -0.79093991      -0.63655874       0.00412890      -0.59223202       0.30505068
H        0.09616638      -0.25705966       1.07151622      -0.10719412      -0.37612364      -0.07831532
H        1.02340394       0.22728641      -0.39731961      -0.61857044       0.35612475       0.19086823
5
Lattice="50.0 0.0 0.0 0.0 50.0 0.0 0.0 0.0 50.0" Properties=species:S:1:pos:R:3:dft_forces:R:3 smiles=C config_type=methane_mol dft_normal_mode_energy=0.04064774011202524 dft_normal_mode_temperature=300.0 dft_energy=-1100.490629134455 pbc="F F F"
C       -0.00105828      -0.00339004      -0.00597011      -0.02573600       0.49602474       0.89610052
H       -0.69870836       0.84732649      -0.07441478       0.12742301       0.19307450      -0.04515741
H       -0.42016120      -0.81829431      -0.58867248       0.00775280      -0.59768161      -0.21055758
H        0.12412379      -0.26064097       1.06354158      -0.33598834      -0.25849748      -0.08749204
H        1.00428314       0.27333773      -0.32825703       0.22654853       0.16707985      -0.55289350
5
Lattice="50.0 0.0 0.0 0.0 50.0 0.0 0.0 0.0 50.0" Properties=species:S:1:pos:R:3:dft_forces:R:3 smiles=C config_type=methane_mol dft_normal_mode_energy=0.04893449164138899 dft_normal_mode_temperature=300.0 dft_energy=-1100.4821855020261 pbc="F F F"
C       -0.00375040       0.00850732      -0.00486134       0.68347809      -1.94347431       0.47252388
H       -0.67735670       0.84108745      -0.04554614      -0.63288999       0.88496708      -0.34258926
H       -0.37741121      -0.88238028      -0.58722148       0.03403710       0.70405475       0.34409952
H        0.08772788      -0.29974240       1.06740513      -0.01181042       0.07613933      -0.42960696
H        1.00865630       0.24099550      -0.37565227      -0.07281478       0.27831315      -0.04442719
5
Lattice="50.0 0.0 0.0 0.0 50.0 0.0 0.0 0.0 50.0" Properties=species:S:1:pos:R:3:dft_forces:R:3 smiles=C config_type=methane_mol dft_normal_mode_energy=0.0813690958782492 dft_normal_mode_temperature=300.0 dft_energy=-1100.4489938868383 pbc="F F F"
C       -0.00386374      -0.00479833      -0.00874027       1.26842488       0.35652991       1.46859919
H       -0.65326385       0.84595927      -0.01659047      -0.81914454       0.94441486      -0.55261251
H       -0.37126291      -0.82761070      -0.58113773      -0.60505758      -0.94917996      -0.56070119
H        0.07021637      -0.23863665       1.07715370       0.15523645      -0.41224632      -0.33453534
H        0.99727666       0.27879884      -0.37421884       0.00054079       0.06048150      -0.02075014
5
Lattice="50.0 0.0 0.0 0.0 50.0 0.0 0.0 0.0 50.0" Properties=species:S:1:pos:R:3:dft_forces:R:3 smiles=C config_type=methane_mol dft_normal_mode_energy=0.20125025960674428 dft_normal_mode_temperature=300.0 dft_energy=-1100.3336212632507 pbc="F F F"
C        0.00363824       0.00656962      -0.00040304       0.07708887      -1.22801676      -0.83629373
H       -0.71023179       0.84909323       0.01569902       0.13841276       0.13312028      -0.87216963
H       -0.35921685      -0.89546622      -0.62780711      -0.02625102       1.23196369       0.97187870
H       -0.00022708      -0.25428423       1.07570927       0.71254089      -0.43070829      -0.16987846
H        1.02324745       0.22370685      -0.45774027      -0.90179150       0.29364108       0.90646312
5
Lattice="50.0 0.0 0.0 0.0 50.0 0.0 0.0 0.0 50.0" Properties=species:S:1:pos:R:3:dft_forces:R:3 smiles=C config_type=methane_mol dft_normal_mode_energy=0.04973293093923277 dft_normal_mode_temperature=300.0 dft_energy=-1100.4812805229744 pbc="F F F"
C        0.00392133      -0.00227744       0.00548595      -0.91365129      -0.02988496       0.48189371
H       -0.68840595       0.84014586      -0.12306642      -0.06378179       0.31723862       0.24041735
H       -0.40679559      -0.79674695      -0.62005886      -0.07437700      -0.62117282       0.04061566
H        0.09031311      -0.28820119       1.08040228      -0.07940626       0.01446550      -0.48134649
H        0.95508866       0.27327373      -0.40159218       1.13121633       0.31935366      -0.28158023
5
Lattice="50.0 0.0 0.0 0.0 50.0 0.0 0.0 0.0 50.0" Properties=species:S:1:pos:R:3:dft_forces:R:3 smiles=C config_type=methane_mol dft_normal_mode_energy=0.09602479379310166 dft_normal_mode_temperature=300.0 dft_energy=-1100.436712018994 pbc="F F F"
C       -0.00599636       0.00082186       0.00558650      -0.38916980       0.17260714      -0.86834753
H       -0.67288509       0.93036177      -0.13433460       0.54914022      -1.35133877       0.47454311
H       -0.37933338      -0.88889801      -0.59750209       0.16895531       0.94625011       0.43817090
H        0.13135284      -0.34014118       1.05092632      -0.30473366       0.37416479      -0.04042898
H        0.98924660       0.29021650      -0.38460170      -0.02419206      -0.14168327      -0.00393750
5
Lattice="50.0 0.0 0.0 0.0 50.0 0.0 0.0 0.0 50.0" Properties=species:S:1:pos:R:3:dft_forces:R:3 smiles=C config_type=methane_mol dft_normal_mode_energy=0.17346249171851366 dft_normal_mode_temperature=300.0 dft_energy=-1100.3571337849194 pbc="F F F"
C        0.00116707       0.00559997      -0.00359242       0.08928586      -0.30890698       0.16678760
H       -0.67823741       0.88305026      -0.14758841       0.11684210      -0.47187755       0.59412003
H       -0.45944239      -0.88921139      -0.49221594       0.60970347       0.56520886      -0.65200954
H        0.10012783      -0.40392225       1.03120033      -0.13870953       0.97281688       0.01318712
H        1.02057107       0.34468609      -0.34753101      -0.67712189      -0.75724122      -0.12208521
5
Lattice="50.0 0.0 0.0 0.0 50.0 0.0 0.0 0.0 50.0" Properties=species:S:1:pos:R:3:dft_forces:R:3 smiles=C config_type=methane_mol dft_normal_mode_energy=0.15025168313728693 dft_normal_mode_temperature=300.0 dft_energy=-1100.37567596339 pbc="F F F"
C        0.01149108      -0.00267048       0.01456316      -0.83944775       0.71174763      -2.35255668
H       -0.72464744       0.81892434      -0.19266809       0.52113706       0.08237876       0.87879904
H       -0.49316093      -0.78436427      -0.60306222       0.84013757      -0.28242047       0.19562214
H        0.07992093      -0.32531836       1.03553349      -0.00801046      -0.03225882       1.01658828
H        0.99788446       0.32391261      -0.41228123      -0.51381642      -0.47944710       0.26154721
5
Lattice="50.0 0.0 0.0 0.0 50.0 0.0 0.0 0.0 50.0" Properties=species:S:1:pos:R:3:dft_forces:R:3 smiles=C config_type=methane_mol dft_normal_mode_energy=0.0795770033830572 dft_normal_mode_temperature=300.0 dft_energy=-1100.4533404275426 pbc="F F F"
C        0.00019421      -0.00095377      -0.00771276       1.46682314      -0.33610945       0.90058680
H       -0.68549388       0.82249284      -0.07301072      -0.53880458       1.01143447      -0.08298281
H       -0.45274582      -0.83390558      -0.55784401       0.33662448      -0.27203122      -0.29420374
H        0.08933671      -0.28897851       1.07391368      -0.09107087       0.07934420      -0.53149129
H        1.04351320       0.31309012      -0.35009609      -1.17357217      -0.48263800       0.00809105
5
Lattice="50.0 0.0 0.0 0.0 50.0 0.0 0.0 0.0 50.0" Properties=species:S:1:pos:R:3:dft_forces:R:3 smiles=C config_type=methane_mol dft_normal_mode_energy=0.0826905364315499 dft_normal_mode_temperature=300.0 dft_energy=-1100.4490391162435 pbc="F F F"
C        0.00012967       0.00322830      -0.00522148      -1.44608497       0.20798601       1.58933225
H       -0.70189182       0.90006610      -0.09604917       0.67458384      -0.98781685       0.17088216
H       -0.38209327      -0.85932132      -0.55585334      -0.21724983      -0.14584356      -0.38356268
H        0.10730376      -0.33851721       1.07361950      -0.22254639       0.54046978      -0.81020992
H        0.97206448       0.26063565      -0.35844176       1.21129735       0.38520462      -0.56644181
5
Lattice="50.0 0.0 0.0 0.0 50.0 0.0 0.0 0.0 50.0" Properties=species:S:1:pos:R:3:dft_forces:R:3 smiles=C config_type=methane_mol dft_normal_mode_energy=0.0979605772127388 dft_normal_mode_temperature=300.0 dft_energy=-1100.4332632753856 pbc="F F F"
C       -0.00028016       0.01651914       0.00125556       0.42441567      -0.66859607      -0.10710029
H       -0.73086908       0.84443673      -0.10733346       0.40539767      -0.05422697       0.17018559
H       -0.37280927      -0.86296958      -0.52487236      -0.31856079      -0.21260660      -0.69170506
H        0.07924266      -0.39247886       1.02070888       0.05893997       0.63254088       0.38699559
H        1.02470003       0.21549935      -0.40240707      -0.57019252       0.30288876       0.24162416
5
Lattice="50.0 0.0 0.0 0.0 50.0 0.0 0.0 0.0 50.0" Properties=species:S:1:pos:R:3:dft_forces:R:3 smiles=C config_type=methane_mol dft_normal_mode_energy=0.1130141801386705 dft_normal_mode_temperature=300.0 dft_energy=-1100.4203614212815 pbc="F F F"
C       -0.01390781      -0.00587337      -0.00596532       2.48201606       1.01766041       0.53068032
H       -0.64685389       0.86775393      -0.02601146      -0.63209900       0.58706377      -0.49212254
H       -0.34286881      -0.83258389      -0.59369254      -0.73548690      -0.96850400      -0.52147698
H        0.11928307      -0.23177436       1.05445898      -0.12276122      -0.58251416       0.35266067
H        1.03309142       0.26792454      -0.36261407      -0.99166894      -0.05370603       0.13025854
5
Lattice="50.0 0.0 0.0 0.0 50.0 0.0 0.0 0.0 50.0" Properties=species:S:1:pos:R:3:dft_forces:R:3 smiles=C config_type=methane_mol dft_normal_mode_energy=0.1192470115468331 dft_normal_mode_temperature=300.0 dft_energy=-1100.4101554315994 pbc="F F F"
C       -0.00276835      -0.01011723      -0.00633138       0.28267927       0.72814787      -0.37128199
H       -0.62443275       0.90425943      -0.08700300      -0.41483914      -0.37547360       0.09794697
H       -0.45245333      -0.88345918      -0.55213298       0.61085602       0.69800098      -0.04660895
H        0.10722675      -0.28297519       1.03928391      -0.11283587      -0.11968888       0.65547720
H        0.99957380       0.38406677      -0.32364417      -0.36586027      -0.93098637      -0.33553323
5
Lattice="50.0 0.0 0.0 0.0 50.0 0.0 0.0 0.0 50.0" Properties=species:S:1:pos:R:3:dft_forces:R:3 smiles=C config_type=methane_mol dft_normal_mode_energy=0.07820620467880451 dft_normal_mode_temperature=300.0 dft_energy=-1100.4503109199627 pbc="F F F"
C        0.00716332       0.00023710       0.00228761      -1.03510157       0.59092252       0.17125456
H       -0.70651147       0.82606994      -0.09065870       0.01397418       0.45425703      -0.00499629
H       -0.40206073      -0.79476144      -0.57785467      -0.43146799      -1.22783877      -0.66941390
H        0.05854600      -0.28872414       1.03858143       0.21639134      -0.28418363       0.86261675
H        0.96159454       0.25592262      -0.39627010       1.23620404       0.46684286      -0.35946112
5
Lattice="50.0 0.0 0.0 0.0 50.0 0.0 0.0 0.0 50.0" Properties=species:S:1:pos:R:3:dft_forces:R:3 smiles=C config_type=methane_mol dft_normal_mode_energy=0.18985153023992463 dft_normal_mode_temperature=300.0 dft_energy=-1100.341977848551 pbc="F F F"
C       -0.00850628       0.01257403       0.00194050       1.83081851      -1.48602131      -0.29012565
H       -0.74835415       0.81977001      -0.06567708       0.36553890       0.47930656      -0.20151912
H       -0.36031030      -0.84683715      -0.63991696      -0.06741393       0.37257299       0.76797822
H        0.12989027      -0.29161857       1.08088383      -0.37605222       0.01154303      -0.77226554
H        1.07706044       0.17018521      -0.39735621      -1.75289127       0.62259873       0.49593209
5
Lattice="50.0 0.0 0.0 0.0 50.0 0.0 0.0 0.0 50.0" Properties=species:S:1:pos:R:3:dft_forces:R:3 smiles=C config_type=methane_mol dft_normal_mode_energy=0.07087564127923607 dft_normal_mode_temperature=300.0 dft_energy=-1100.4611543044161 pbc="F F F"
C       -0.00143247      -0.00546441       0.00475944       0.22455610      -0.05495257       0.05689227
H       -0.63903144       0.88094925      -0.07069247      -0.50158152       0.08137826      -0.20421780
H       -0.35739403      -0.84272480      -0.63246160      -0.30477834       0.14663725       0.41570609
H        0.05062189      -0.26692497       1.09701489       0.30187812      -0.09562396      -0.77964469
H        0.95979934       0.29514879      -0.44951854       0.27992564      -0.07743898       0.51126413
5
Lattice="50.0 0.0 0.0 0.0 50.0 0.0 0.0 0.0 50.0" Properties=species:S:1:pos:R:3:dft_forces:R:3 smiles=C config_type=methane_mol dft_normal_mode_energy=0.18946204023370547 dft_normal_mode_temperature=300.0 dft_energy=-1100.350445169771 pbc="F F F"
C        0.01232428      -0.00499421      -0.01266129      -0.88278955       1.01362205       0.28634531
H       -0.72507323       0.81391012      -0.06491707       0.27558795       0.45142395      -0.02729362
H       -0.51164668      -0.81034103      -0.50992347       0.52636939      -0.80327678      -0.85803709
H        0.06957188      -0.27214564       1.01997634       0.06180402      -0.38893738       1.36197213
H        1.01721708       0.32942043      -0.29320394       0.01902820      -0.27283185      -0.76298673
5
Lattice="50.0 0.0 0.0 0.0 50.0 0.0 0.0 0.0 50.0" Properties=species:S:1:pos:R:3:dft_forces:R:3 smiles=C config_type=methane_mol dft_normal_mode_energy=0.13453963684995096 dft_normal_mode_temperature=300.0 dft_energy=-1100.3897441417992 pbc="F F F"
C        0.02014196       0.00882905       0.00095820      -3.30203777      -0.92532978      -0.25735354
H       -0.77121019       0.81119375      -0.10507994       1.02003700      -0.09205847       0.20482575
H       -0.48503611      -0.84022495      -0.56226491       0.92883822       0.48054347       0.17086995
H        0.03035120      -0.33515768       1.04071772       0.32161761       0.17595527       0.35063372
H        0.98280916       0.26031391      -0.38373304       1.03154495       0.36088951      -0.46897588
5
Lattice="50.0 0.0 0.0 0.0 50.0 0.0 0.0 0.0 50.0" Properties=species:S:1:pos:R:3:dft_forces:R:3 smiles=C config_type=methane_mol dft_normal_mode_energy=0.20459702643475525 dft_normal_mode_temperature=300.0 dft_energy=-1100.33322482718 pbc="F F F"
C        0.01430706       0.00123697       0.00888969      -1.42814308      -2.03784622      -0.59045986
H       -0.70619762       0.78852994      -0.08296800      -0.51391905       1.27828903      -0.20224667
H       -0.45052461      -0.82248953      -0.68045965       0.81543502       0.75848711       1.45549295
H        0.02297463      -0.24679764       1.10531563       0.41826188      -0.29945077      -0.82829220
H        0.96018983       0.26735330      -0.44676154       0.70836524       0.30052084       0.16550577
5
Lattice="50.0 0.0 0.0 0.0 50.0 0.0 0.0 0.0 50.0" Properties=species:S:1:pos:R:3:dft_forces:R:3 smiles=C config_type=methane_mol dft_normal_mode_energy=0.06491975008927416 dft_normal_mode_temperature=300.0 dft_energy=-1100.4655735412634 pbc="F F F"
C       -0.00781971      -0.00545031      -0.00245849       1.06075886       1.10996962       1.52055476
H       -0.66903882       0.87400054      -0.07095103      -0.07723794      -0.02146591      -0.13728013
H       -0.35272260      -0.80975035      -0.61039936      -0.70809840      -1.14190768      -0.46054232
H        0.11744566      -0.26067293       1.09474929      -0.26232124      -0.11964383      -0.94303244
H        0.99442242       0.26270162      -0.38304784      -0.01310129       0.17304781       0.02030012
5
Lattice="50.0 0.0 0.0 0.0 50.0 0.0 0.0 0.0 50.0" Properties=species:S:1:pos:R:3:dft_forces:R:3 smiles=C config_type=methane_mol dft_normal_mode_energy=0.19517769192054177 dft_normal_mode_temperature=300.0 dft_energy=-1100.3425080697277 pbc="F F F"
C        0.00195151      -0.00276574       0.01080308       0.54937411      -0.75773577      -1.52267117
H       -0.64685667       0.85074054      -0.18315849      -0.57828808       0.43910860       0.67475938
H       -0.48513365      -0.85458977      -0.60717231       1.14696800       0.94773100       0.68893260
H        0.09936185      -0.33799877       1.06679380      -0.15997538       0.44353824      -0.26819576
H        1.00629920       0.37613983      -0.40413614      -0.95807865      -1.07264207       0.42717495
5
Lattice="50.0 0.0 0.0 0.0 50.0 0.0 0.0 0.0 50.0" Properties=species:S:1:pos:R:3:dft_forces:R:3 smiles=C config_type=methane_mol dft_normal_mode_energy=0.11827651888938984 dft_normal_mode_temperature=300.0 dft_energy=-1100.4059693813097 pbc="F F F"
C       -0.00569491      -0.00300417      -0.00376777      -0.68408301      -0.92123054       1.23507539
H       -0.62883756       0.86486760      -0.05249517      -0.97628396       0.82342758      -0.32546123
H       -0.35388427      -0.84329445      -0.61228076      -0.41271345      -0.19516701       0.07013115
H        0.10911431      -0.24914227       1.06949527      -0.12216596      -0.34522680      -0.16144980
H        0.93839667       0.26470153      -0.35876563       2.19524637       0.63819677      -0.81829552
5
Lattice="50.0 0.0 0.0 0.0 50.0 0.0 0.0 0.0 50.0" Properties=species:S:1:pos:R:3:dft_forces:R:3 smiles=C config_type=methane_mol dft_normal_mode_energy=0.08240816131130473 dft_normal_mode_temperature=300.0 dft_energy=-1100.4494988998492 pbc="F F F"
C       -0.00484416       0.00485115      -0.00107877       0.21377446      -0.02392188      -0.32459780
H       -0.69429505       0.85480616      -0.12946836       0.07673528       0.10710808       0.39022611
H       -0.41771792      -0.84508219      -0.55116120       0.12775501      -0.25699220      -0.42921706
H        0.15494944      -0.33483306       1.01299554      -0.47199601       0.08989162       0.99702151
H        1.01171406       0.26863473      -0.31845328       0.05373126       0.08391438      -0.63343275
5
Lattice="50.0 0.0 0.0 0.0 50.0 0.0 0.0 0.0 50.0" Properties=species:S:1:pos:R:3:dft_forces:R:3 smiles=C config_type=methane_mol dft_normal_mode_energy=0.11517924777805796 dft_normal_mode_temperature=300.0 dft_energy=-1100.4203457853741 pbc="F F F"
C        0.00358866       0.00909855       0.00946487      -0.91124751      -0.25948954      -1.55729682
H       -0.72800750       0.89332280      -0.11921779       0.99199194      -1.13871722       0.31547219
H       -0.37972181      -0.88277074      -0.58906173       0.11109472       0.90875342       0.39321520