1
Lattice="20.0 0.0 0.0 0.0 20.0 0.0 0.0 0.0 20.0" Properties=species:S:1:pos:R:3:masses:R:1:DFT_forces:R:3 DFT_energy=3.51 DFT_stress="-0.0 -0.0 -0.0 -0.0 -0.0 -0.0" config_type=isolated_atom pbc="F F F"
Cu       0.00000000       0.00000000       0.00000000      63.54600000       0.00000000       0.00000000       0.00000000
64
Lattice="10.248472 0.0 0.0 -5.124236 8.875438 0.0 0.0 0.0 26.41381" Properties=species:S:1:pos:R:3:masses:R:1:DFT_forces:R:3 DFT_energy=11.465695465359458 DFT_stress="0.006648943221332776 0.00664897053476058 0.00039938603017315136 6.974069766628876e-09 -2.407086771666847e-08 1.6583019126502557e-08" pbc="T T T"
Cu      -1.28106000       3.69810000       8.00000000      63.54600000      -0.00002172      -0.00000092       0.17017327
Cu       1.28105000       8.13582000       8.00000000      63.54600000       0.00003237      -0.00000277       0.17016621
Cu      -0.00000512       5.91696000       8.00000000      63.54600000       0.00000759       0.00000222       0.17016947
Cu       2.56211000       5.91696000       8.00000000      63.54600000       0.00001674      -0.00000019       0.17017667
Cu       2.56211000       1.47924000       8.00000000      63.54600000       0.00002052       0.00000423       0.17018206
Cu       5.12423000       5.91696000       8.00000000      63.54600000       0.00001140       0.00000051       0.17018032
Cu       3.84317000       8.13582000       8.00000000      63.54600000       0.00001263      -0.00001104       0.17017253
Cu       3.84317000       3.69810000       8.00000000      63.54600000       0.00000834       0.00000017       0.17017689
Cu       1.28105000       3.69810000       8.00000000      63.54600000       0.00003051       0.00000120       0.17017113
Cu       6.40529000       3.69810000       8.00000000      63.54600000       0.00001039       0.00000158       0.17017725
Cu      -1.28106000       8.13582000       8.00000000      63.54600000      -0.00001952      -0.00000284       0.17016637
Cu       5.12423000       1.47924000       8.00000000      63.54600000       0.00000808       0.00001301       0.17017888
Cu      -3.84318000       8.13582000       8.00000000      63.54600000      -0.00000064      -0.00001459       0.17017419
Cu      -2.56212000       5.91696000       8.00000000      63.54600000      -0.00000784      -0.00000246       0.17017855
Cu       7.68635000       1.47924000       8.00000000      63.54600000      -0.00000095       0.00000592       0.17018230
Cu      -0.00000512       1.47924000       8.00000000      63.54600000       0.00000350      -0.00000308       0.17017163
Cu       6.40530000       5.17734000      10.09200000      63.54600000       0.00010809      -0.00006002      -0.34533027
Cu       3.84318000       0.73961700      10.09200000      63.54600000       0.00010989      -0.00003196      -0.34531745
Cu       2.56212000       2.95848000      10.09200000      63.54600000       0.00000286       0.00012209      -0.34531964
Cu       1.28106000       0.73961700      10.09200000      63.54600000      -0.00009681      -0.00004410      -0.34531388
Cu      -1.28105000       5.17734000      10.09200000      63.54600000      -0.00016126      -0.00006913      -0.34531562
Cu       5.12424000       7.39620000      10.09200000      63.54600000      -0.00000636       0.00011170      -0.34533323
Cu       0.00000512       2.95848000      10.09200000      63.54600000      -0.00001776      -0.00001344      -0.34549121
Cu       1.28106000       5.17734000      10.09200000      63.54600000       0.00013225      -0.00006736      -0.34531571
Cu       2.56212000       7.39620000      10.09200000      63.54600000       0.00000710      -0.00001605      -0.34550129
Cu       7.68636000       2.95848000      10.09200000      63.54600000      -0.00002090       0.00012392      -0.34531858
Cu       6.40530000       0.73961700      10.09200000      63.54600000      -0.00012657      -0.00002767      -0.34532906
Cu       5.12424000       2.95848000      10.09200000      63.54600000      -0.00001267      -0.00000414      -0.34551046
Cu       0.00000512       7.39620000      10.09200000      63.54600000      -0.00001422       0.00012114      -0.34531330
Cu       3.84318000       5.17734000      10.09200000      63.54600000      -0.00011988      -0.00006560      -0.34531958
Cu       8.96742000       0.73961700      10.09200000      63.54600000       0.00007568      -0.00004081      -0.34531306
Cu      -2.56211000       7.39620000      10.09200000      63.54600000      -0.00003770      -0.00001811      -0.34550174
Cu       1.28106000       2.21886000      12.11460000      63.54600000      -0.00000076      -0.00000469       0.20374793
Cu       8.96741200       2.21886000      12.11460000      63.54600000      -0.00000416      -0.00000614       0.20374703
Cu      -1.28106000       6.65658000      12.11460000      63.54600000       0.00001221      -0.00000747       0.20375087
Cu       0.00000000       4.43772000      12.11460000      63.54600000       0.00000099       0.00000267       0.20375226
Cu       3.84318000       6.65658000      12.11460000      63.54600000      -0.00002553      -0.00000530       0.20375054
Cu       2.56212000       0.00000000      12.11460000      63.54600000      -0.00000734       0.00001069       0.20375490
Cu       5.12424000       4.43772000      12.11460000      63.54600000      -0.00003223       0.00000532       0.20375101
Cu       1.28106000       6.65658000      12.11460000      63.54600000      -0.00000774      -0.00001643       0.20375100
Cu       3.84318000       2.21886000      12.11460000      63.54600000      -0.00003099      -0.00000409       0.20374692
Cu       6.40529000       2.21886000      12.11460000      63.54600000       0.00004645      -0.00000249       0.20374692
Cu       7.68635000       0.00000000      12.11460000      63.54600000       0.00003682       0.00001230       0.20375472
Cu       6.40529200       6.65658000      12.11460000      63.54600000       0.00002800       0.00000008       0.20375030
Cu       2.56212000       4.43772000      12.11470000      63.54600000      -0.00000871       0.00000008       0.20287283
Cu       5.12424000       0.00000000      12.11470000      63.54600000      -0.00003528       0.00000131       0.20286669
Cu       7.68635200       4.43772000      12.11470000      63.54600000       0.00002341      -0.00000136       0.20287252
Cu       0.00000000       0.00000000      12.11470000      63.54600000      -0.00000400       0.00001021       0.20288876
Cu       1.28105000       3.69810000      14.17210000      63.54600000      -0.00006033      -0.00005208      -0.02830216
Cu      -3.84318000       8.13582000      14.17210000      63.54600000       0.00008678      -0.00006371      -0.02830204
Cu       6.40529000       3.69810000      14.17210000      63.54600000      -0.00008151      -0.00005287      -0.02829723
Cu       3.84317000       3.69810000      14.17210000      63.54600000       0.00010032      -0.00005184      -0.02830480
Cu       5.12423000       1.47924000      14.17210000      63.54600000       0.00000481       0.00011570      -0.02829371
Cu      -2.56212000       5.91696000      14.17210000      63.54600000      -0.00001465       0.00010343      -0.02830446
Cu       1.28105000       8.13582000      14.17210000      63.54600000       0.00012176      -0.00005681      -0.02829001
Cu       3.84317000       8.13582000      14.17210000      63.54600000      -0.00008106      -0.00006000      -0.02830401
Cu       2.56211000       5.91696000      14.17210000      63.54600000       0.00001801       0.00010521      -0.02830366
Cu      -1.28106000       8.13582000      14.17210000      63.54600000      -0.00011220      -0.00005359      -0.02829985
Cu      -0.00000512       1.47924000      14.17210000      63.54600000       0.00000140       0.00010094      -0.02830199
Cu      -1.28106000       3.69810000      14.17210000      63.54600000       0.00006415      -0.00005354      -0.02830245
Cu       7.68635000       1.47924000      14.17210000      63.54600000      -0.00000764       0.00000787      -0.02846700
Cu      -0.00000512       5.91696000      14.17210000      63.54600000       0.00000470       0.00000034      -0.02846273
Cu       2.56211000       1.47924000      14.17210000      63.54600000       0.00002197       0.00000582      -0.02846422
Cu       5.12423000       5.91696000      14.17210000      63.54600000       0.00000917      -0.00000099      -0.02845848
64
Lattice="10.248472 0.0 0.0 -5.124236 8.875438 0.0 0.0 0.0 26.41381" Properties=species:S:1:pos:R:3:masses:R:1:DFT_forces:R:3 DFT_energy=14.253479291440915 DFT_stress="0.005549728243799764 0.004791104136939691 0.006424946637589911 -0.0002741566039835324 -0.0006906159263960197 0.0004381758616128374" pbc="T T T"
Cu      -1.28106000       3.69810000       8.00000000      63.54600000       0.15246476       0.07315265       0.21070101
Cu       1.28105000       8.13582000       8.00000000      63.54600000       0.43111387       0.14131081      -0.18918498
Cu      -0.00000512       5.91696000       8.00000000      63.54600000      -0.20634248      -0.24249442      -0.47639620
Cu       2.56211000       5.91696000       8.00000000      63.54600000       0.06022326       0.08702618       0.41546555
Cu       2.56211000       1.47924000       8.00000000      63.54600000      -0.05706720       0.12022028      -0.01347730
Cu       5.12423000       5.91696000       8.00000000      63.54600000      -0.02523047      -0.24148375       0.32527070
Cu       3.84317000       8.13582000       8.00000000      63.54600000      -0.08232930       0.07456981       0.29639460
Cu       3.84317000       3.69810000       8.00000000      63.54600000       0.06723976       0.06301364       0.27469897
Cu       1.28105000       3.69810000       8.00000000      63.54600000       0.07926712       0.01894419       0.22101124
Cu       6.40529000       3.69810000       8.00000000      63.54600000       0.03751808       0.04825301       0.30073521
Cu      -1.28106000       8.13582000       8.00000000      63.54600000      -0.18019941       0.19475933      -0.31251257
Cu       5.12423000       1.47924000       8.00000000      63.54600000      -0.03766741      -0.10306394       0.09579008
Cu      -3.84318000       8.13582000       8.00000000      63.54600000       0.24997899       0.10712828      -0.41518192
Cu      -2.56212000       5.91696000       8.00000000      63.54600000      -0.06371076      -0.27045233       0.14436387
Cu       7.68635000       1.47924000       8.00000000      63.54600000      -0.02782279      -0.07583383       0.38715874
Cu      -0.00000512       1.47924000       8.00000000      63.54600000      -0.03592561       0.04272727       0.31380659
Cu       6.42836000       5.08501000      10.24440000      63.54600000      -0.40400931       0.14581765      -0.93710965
Cu       3.71910000       0.75114600      10.07380000      63.54600000       0.68009042      -0.37851455       0.35873721
Cu       2.64579000       2.97167000      10.10600000      63.54600000      -0.50383272      -0.23170715       0.06392673
Cu       1.32193000       0.68319200      10.06010000      63.54600000      -0.28772150       0.23286433       0.15636974
Cu      -1.23758000       5.21103000      10.16200000      63.54600000      -0.40306497      -0.41222776      -0.29642761
Cu       5.26210000       7.41306000       9.96508000      63.54600000      -0.80694971      -0.45309771       0.87865081
Cu       0.12828900       3.00416000      10.13940000      63.54600000      -0.34449437      -0.31382530      -0.34680887
Cu       1.16661000       5.28423000      10.04520000      63.54600000       0.98224156      -0.45090889       0.41800354
Cu       2.64301000       7.50723000      10.23610000      63.54600000      -0.14806215      -0.47699848      -0.56677087
Cu       7.80943000       2.97436000      10.06590000      63.54600000      -0.33355558      -0.20850296       0.38871456
Cu       6.29357000       0.68373100      10.13640000      63.54600000       0.76338839       0.42418911      -0.20574947
Cu       5.18154000       2.85145000      10.07780000      63.54600000      -0.10228876       0.37232481       0.20624700
Cu       0.03409610       7.41187000       9.88425000      63.54600000      -0.30093151       0.14319256       1.53180330
Cu       3.70547000       5.12610000      10.21710000      63.54600000       0.74240357       0.46997222      -0.66435548
Cu       9.03058000       0.79374600      10.16650000      63.54600000      -0.06132761      -0.07391963      -0.01645420
Cu      -2.49536000       7.28652000      10.01500000      63.54600000      -0.23081048       0.56943924       0.51992881
Cu       1.14439000       2.00098000      12.17860000      63.54600000       0.33102348       1.06998068       0.08199954
Cu       8.90881200       2.20153000      12.36280000      63.54600000       0.60609361      -0.35738216      -0.33884481
Cu      -1.39966000       6.63167000      12.21910000      63.54600000       0.66446990      -0.05396744      -0.10868001
Cu      -0.11399900       4.30781000      12.20930000      63.54600000       0.24871516       0.57673390       0.20104337
Cu       3.84221000       6.55662000      12.22950000      63.54600000      -0.20308469       0.41781483      -0.29286564
Cu      -2.68765600       8.76966400      12.30210000      63.54600000       0.93570315      -0.07510289      -0.65055085
Cu       5.06306000       4.17849000      12.19780000      63.54600000      -0.26995877       0.78670254       0.35652212
Cu       1.25734000       6.57474000      12.25230000      63.54600000      -0.16246976       0.33150934      -0.34573954
Cu       3.74165000       2.13180000      12.31140000      63.54600000       0.05951826      -0.10384646      -1.09090727
Cu       6.54324000       2.23521000      12.32500000      63.54600000      -1.02098642      -0.41205121      -0.33105730
Cu       7.61256000       0.03465910      12.26180000      63.54600000       0.37244739      -0.33437890       0.36549942
Cu       6.37517200       6.63488000      12.15240000      63.54600000      -0.29327517      -0.49486713       0.37560839
Cu       2.42468000       4.39251000      12.19670000      63.54600000      -0.00435699      -0.65851003       0.10609741
Cu      -0.02074600       8.80917090      12.13810000      63.54600000      -0.41916827       0.06468798       0.20606612
Cu       7.61219200       4.42100000      12.24600000      63.54600000       0.11820041       0.12403151       0.16624053
Cu       5.18382510       8.75066600      12.24240000      63.54600000      -1.30854416      -0.04862823       0.18959831
Cu       1.02061000       3.65978000      14.34170000      63.54600000       0.28932505      -0.31781257      -0.33760633
Cu      -3.84518000       8.00945000      14.47150000      63.54600000      -0.65161856       0.32185902      -0.43089785
Cu       6.22037000       3.63953000      14.44710000      63.54600000       0.09361224       0.53179289      -0.31961768
Cu       3.60113000       3.45520000      14.42280000      63.54600000       0.17817205       0.94948004      -0.17880590
Cu       5.01183000       1.54532000      14.28030000      63.54600000       0.56188711      -1.03634739      -0.02402900
Cu      -2.64478000       5.95833000      14.32360000      63.54600000      -0.13088238      -0.46539704      -0.21418721
Cu       1.05610000       8.08225000      14.31630000      63.54600000       1.24666952       0.40617742      -0.20040109
Cu       3.67798000       8.09540000      14.37370000      63.54600000       0.11710790      -0.03217608      -0.47173557
Cu       2.55844000       5.65931000      14.27290000      63.54600000      -1.11847314       0.76628290       0.13056095
Cu      -1.28808000       8.08173000      14.30060000      63.54600000      -0.67691855       0.34966070      -0.12010011
Cu      -0.03882340       1.39877000      14.43640000      63.54600000      -0.21223023      -0.17101901      -0.38950274
Cu      -1.51821000       3.75611000      14.33330000      63.54600000       0.59635888       0.18734960       0.05092188
Cu       7.70915000       1.60949000      14.50570000      63.54600000      -0.49057863      -0.91325281      -0.22101916
Cu      -0.04210130       5.91856000      14.26650000      63.54600000      -0.25288260      -0.47961439      -0.08481747
Cu       2.43154000       1.39192000      14.19320000      63.54600000      -0.28128621      -0.32784681       0.69710052
Cu       4.86178000       5.78845000      14.22990000      63.54600000       1.47482474       0.00226255       0.15675786
64
Lattice="10.248472 0.0 0.0 -5.124236 8.875438 0.0 0.0 0.0 26.41381" Properties=species:S:1:pos:R:3:masses:R:1:DFT_forces:R:3 DFT_energy=14.639365719514812 DFT_stress="0.005165205164132087 0.003946296687812378 0.004101323782921927 -0.0007161056591249135 0.0010637166092995454 -0.0009666815733704898" pbc="T T T"
Cu      -1.28106000       3.69810000       8.00000000      63.54600000      -0.04281343       0.10027881       0.15317379
Cu       1.28105000       8.13582000       8.00000000      63.54600000      -0.04842695       0.03018328       0.45061007
Cu      -0.00000512       5.91696000       8.00000000      63.54600000      -0.04993496      -0.02282433       0.43817987
Cu       2.56211000       5.91696000       8.00000000      63.54600000       0.02720003       0.07576444       0.28875883
Cu       2.56211000       1.47924000       8.00000000      63.54600000       0.11182742      -0.00670660       0.02918907
Cu       5.12423000       5.91696000       8.00000000      63.54600000       0.05153846      -0.19655005       0.19861972
Cu       3.84317000       8.13582000       8.00000000      63.54600000      -0.02257444       0.07426029      -0.16893217
Cu       3.84317000       3.69810000       8.00000000      63.54600000       0.03378799      -0.04505953       0.38109836
Cu       1.28105000       3.69810000       8.00000000      63.54600000       0.43134895       0.25856272      -0.29001663
Cu       6.40529000       3.69810000       8.00000000      63.54600000       0.04080676       0.11013851       0.35011198
Cu      -1.28106000       8.13582000       8.00000000      63.54600000       0.13917178       0.04369768       0.22832572
Cu       5.12423000       1.47924000       8.00000000      63.54600000       0.02845614      -0.06582070       0.30692596
Cu      -3.84318000       8.13582000       8.00000000      63.54600000       0.09761966      -0.04144238       0.13294548
Cu      -2.56212000       5.91696000       8.00000000      63.54600000      -0.03727922      -0.07063291       0.50231327
Cu       7.68635000       1.47924000       8.00000000      63.54600000      -0.02775429      -0.04894407       0.34888594
Cu      -0.00000512       1.47924000       8.00000000      63.54600000       0.12336137      -0.08823520      -0.12413641
Cu       6.34293000       5.19798000      10.30360000      63.54600000       0.58804385       0.02045194      -0.88728290
Cu       3.86141000       0.74339500      10.15450000      63.54600000       0.64699914      -0.44828520      -0.19448785
Cu       2.60439000       2.82658000      10.13200000      63.54600000       0.51523512       0.97453134      -0.29154352
Cu       1.42014000       0.70564000      10.07050000      63.54600000      -0.60321322      -0.42748743       0.03584534
Cu      -1.28999000       5.14584000      10.20370000      63.54600000       0.06816343      -0.01992710      -0.45756136
Cu       5.09385000       7.36486000      10.00870000      63.54600000       0.90634043       0.13636892       0.19957216
Cu       0.17040400       3.00301000       9.94535000      63.54600000      -0.67503186      -0.31778762       0.84294257
Cu       1.34503000       5.23126000      10.13900000      63.54600000       0.11064752      -0.26640920      -0.66289208
Cu       2.66913000       7.51613000      10.09820000      63.54600000      -0.65060626      -0.35185451      -0.09222399
Cu       7.74752000       2.95510000      10.09890000      63.54600000       0.04229764       0.19115720      -0.27963586
Cu       6.45178000       0.79838800      10.20300000      63.54600000       0.06079724      -0.77059299      -0.34805280
Cu       5.24990000       2.89159000      10.10790000      63.54600000      -0.49537641       0.53828781       0.05162072
Cu       0.04662680       7.32399000      10.19010000      63.54600000       0.14839589       0.31083495      -0.22010815
Cu       3.82311000       5.16200000      10.12600000      63.54600000       0.39806443      -0.54629647      -1.59180686
Cu       9.12816000       0.74813900      10.06860000      63.54600000      -0.36168677       0.22295289       0.12122643
Cu      -2.41106000       7.42083000      10.09640000      63.54600000      -0.69867327      -0.45201734       0.34462235
Cu       1.49022000       2.02570000      12.17160000      63.54600000      -0.33091236       0.52060414       0.20043406
Cu      -1.14773000       2.29469000      12.03300000      63.54600000       0.98078592      -0.67050450       0.50684793
Cu      -1.25686000       6.39311000      12.39390000      63.54600000       0.53388690       0.65463278      -0.20999325
Cu       0.18979400       4.33826000      12.09590000      63.54600000       0.25188711      -0.10132661       0.59009587
Cu       3.99603000       6.47152000      12.01490000      63.54600000       0.23145793       1.17309686       0.80376743
Cu      -2.37890600       8.68763000      12.36840000      63.54600000      -0.21505797       0.20456287      -0.35654578
Cu       5.24401000       4.33808000      12.25600000      63.54600000       0.40671264      -0.80023742      -0.13159040
Cu       1.54737000       6.56662000      12.16900000      63.54600000      -0.43154546       0.15671432       0.37967417
Cu       4.06722000       2.08918000      12.20190000      63.54600000      -0.22548019       0.03395326       0.01432529
Cu       6.76947000       2.06701000      12.27680000      63.54600000      -1.58251983       0.79807461      -0.30791168
Cu       2.74266400       8.84580740      12.26180000      63.54600000       0.03496631      -0.32902549      -0.64415989
Cu      -3.71173000       6.57080000      12.35630000      63.54600000       0.24897819       0.38365793      -0.47842822
Cu       2.83844000       4.38878000      12.10250000      63.54600000      -1.32401953      -0.98519748       0.95053965
Cu       0.05028400       8.65690800      12.30030000      63.54600000       0.50896964       0.14807885      -0.25437815
Cu      -2.43605000       4.32820000      12.33660000      63.54600000      -0.27921324       0.18548396      -0.18563969
Cu      -4.96793300       8.76672800      12.12410000      63.54600000       0.08802668      -0.02913732       0.05663788
Cu       1.32147000       3.46796000      14.38070000      63.54600000       0.20915686       0.25675399      -0.53851324
Cu      -3.65583000       8.20639000      14.49670000      63.54600000      -0.91101452      -1.51870763      -0.34306150
Cu       6.56609000       3.73715000      14.33740000      63.54600000      -0.42676688      -0.82747217      -0.00730218
Cu       3.88855000       3.52497000      14.25690000      63.54600000       0.24902120      -0.20091845      -0.05005956
Cu       5.33676000       1.41770000      14.18740000      63.54600000      -0.95690261      -0.20470226       0.27167626
Cu      -2.67490000       5.86099000      14.69510000      63.54600000       0.74787955       0.28375787      -0.54180811
Cu       1.46270000       7.98248000      14.26480000      63.54600000      -0.15234246      -0.20441563       0.03912984
Cu       3.97647000       7.86555000      14.05910000      63.54600000      -0.06748253       0.61678034       0.52829270
Cu       2.69583000       5.63952000      14.37730000      63.54600000       0.08655245       0.41045441      -0.44294877
Cu      -1.08445000       7.81050000      14.44650000      63.54600000      -0.14577049       0.50356427      -0.17875520
Cu      -0.10681800       1.36330000      14.15570000      63.54600000       0.13256335      -0.05977268      -0.19628871
Cu      -1.11160000       3.68694000      14.40780000      63.54600000      -0.54013284      -0.16088481      -0.46116282
Cu       7.66438000       1.32823000      14.36480000      63.54600000       1.12246519       0.25745824       0.31553267
Cu       0.28547500       5.71284000      14.22090000      63.54600000      -0.41858325       0.26585185      -0.00180748
Cu       2.44080000       1.34108000      14.34520000      63.54600000       1.39229656       0.86830079      -0.14550503
Cu       5.17559000       5.85039000      14.11170000      63.54600000      -0.07459447      -0.53007604       1.02261888
64
Lattice="10.248472 0.0 0.0 -5.124236 8.875438 0.0 0.0 0.0 26.41381" Properties=species:S:1:pos:R:3:masses:R:1:DFT_forces:R:3 DFT_energy=14.88881162332334 DFT_stress="0.008886490638095927 0.008545568599798192 0.013693625434996594 0.0003589112355015606 -0.0005442605477452039 -0.00032487619660624125" pbc="T T T"
Cu      -1.28106000       3.69810000       8.00000000      63.54600000       0.11893444       0.11366760       0.43067323
Cu       1.28105000       8.13582000       8.00000000      63.54600000      -0.06105807       0.09488661       0.09711018
Cu      -0.00000512       5.91696000       8.00000000      63.54600000       0.02806891      -0.04305048       0.57186588
Cu       2.56211000       5.91696000       8.00000000      63.54600000       0.01847280      -0.07906448       0.35212035
Cu       2.56211000       1.47924000       8.00000000      63.54600000       0.15626378      -0.03225885       0.12014585
Cu       5.12423000       5.91696000       8.00000000      63.54600000      -0.15264348       0.17575865       0.14771865
Cu       3.84317000       8.13582000       8.00000000      63.54600000       0.20767253       0.11363934       0.33554658
Cu       3.84317000       3.69810000       8.00000000      63.54600000       0.07712167       0.03130992       0.31811444
Cu       1.28105000       3.69810000       8.00000000      63.54600000      -0.04091373       0.00180855       0.45154461
Cu       6.40529000       3.69810000       8.00000000      63.54600000       0.04821571      -0.12074795      -0.05838489
Cu      -1.28106000       8.13582000       8.00000000      63.54600000      -0.07482736       0.02497043       0.44688985
Cu       5.12423000       1.47924000       8.00000000      63.54600000      -0.03308203      -0.03989245       0.36518959
Cu      -3.84318000       8.13582000       8.00000000      63.54600000       0.01327259      -0.25647693       0.33082937
Cu      -2.56212000       5.91696000       8.00000000      63.54600000       0.30721114       0.17747439       0.19493916
Cu       7.68635000       1.47924000       8.00000000      63.54600000       0.03755163      -0.08628522       0.44997244
Cu      -0.00000512       1.47924000       8.00000000      63.54600000      -0.15790086       0.05212243       0.42369651
Cu       6.44654000       5.21004000       9.96053000      63.54600000       0.21055627       0.08106004       1.01595452
Cu       3.92300000       0.71894600      10.22180000      63.54600000      -0.32458606       0.47548247      -0.05162313
Cu       2.62584000       2.91128000      10.08210000      63.54600000       0.14559587       0.04013185       0.37037229
Cu       1.31621000       0.69505000      10.00560000      63.54600000      -0.21402837       0.16033097       0.74514637
Cu      -1.25781000       5.31926000      10.30220000      63.54600000       0.37502878      -0.64997625      -0.33204881
Cu       5.13549000       7.38921000      10.30430000      63.54600000       0.02610642       0.20846239      -0.43838987
Cu       0.04160580       2.91824000      10.22860000      63.54600000      -0.03224843       0.14735360      -0.26755739
Cu       1.45346000       5.12716000      10.22020000      63.54600000      -0.58032385       0.24229134      -0.20031939
Cu       2.59054000       7.47619000      10.02730000      63.54600000      -0.21435225      -0.75310868       0.62862637
Cu       7.75647000       2.97456000      10.08500000      63.54600000       0.19111574       0.08042059       0.33043527
Cu       6.38453000       0.75203400      10.15430000      63.54600000       0.28916514       0.14348339       0.23380674
Cu       5.27781000       2.95190000      10.11850000      63.54600000      -0.66879797       0.03257591       0.16889842
Cu       0.02483210       7.47960000      10.11140000      63.54600000       0.36350666      -0.64326642       0.24950694
Cu       3.95602000       5.15939000      10.15380000      63.54600000      -0.15163902       0.01169653      -0.22993531
Cu       8.86826000       0.67350000      10.34110000      63.54600000       0.59118819       0.50047739      -0.52392270
Cu      -2.45239000       7.45161000      10.31110000      63.54600000      -0.69213071      -0.09796531      -0.30025980
Cu      -0.13732200       1.49079000      12.35340000      63.54600000       0.89599549       0.27087059       0.21624603
Cu       7.70027000       1.65789000      12.41400000      63.54600000      -0.77561989      -0.57662206       0.10222738
Cu      -2.46460000       5.90077000      12.46170000      63.54600000      -0.20728233       0.36021630      -0.27078540
Cu      -1.19521000       3.75326000      12.37830000      63.54600000       0.03780026       0.34056898      -0.54814709
Cu       2.76201000       5.99347000      12.24200000      63.54600000      -0.48474038       0.15063733       0.15029071
Cu      -3.86922000       8.24183000      12.37320000      63.54600000       0.10177581      -0.46678109      -0.23502841
Cu       4.03730000       3.82226000      12.30450000      63.54600000      -1.23985206      -0.09321470      -0.16593066
Cu       0.24187200       5.93506000      12.42920000      63.54600000      -0.69015762       0.04139837      -0.79199576