
                                 *****************
                                 * O   R   C   A *
                                 *****************

           --- An Ab Initio, DFT and Semiempirical electronic structure package ---

                  #######################################################
                  #                        -***-                        #
                  #          Department of theory and spectroscopy      #
                  #               Directorship: Frank Neese             #
                  #        Max Planck Institute fuer Kohlenforschung    #
                  #                Kaiser Wilhelm Platz 1               #
                  #                 D-45470 Muelheim/Ruhr               #
                  #                      Germany                        #
                  #                                                     #
                  #                  All rights reserved                #
                  #                        -***-                        #
                  #######################################################


                         Program Version 4.2.1 -  RELEASE  -


 With contributions from (in alphabetic order):
   Daniel Aravena         : Magnetic Suceptibility
   Michael Atanasov       : Ab Initio Ligand Field Theory (pilot matlab implementation)
   Alexander A. Auer      : GIAO ZORA, VPT2
   Ute Becker             : Parallelization
   Giovanni Bistoni       : ED, misc. LED, open-shell LED, HFLD
   Martin Brehm           : Molecular dynamics
   Dmytro Bykov           : SCF Hessian
   Vijay G. Chilkuri      : MRCI spin determinant printing, contributions to CSF-ICE
   Dipayan Datta          : RHF DLPNO-CCSD density
   Achintya Kumar Dutta   : EOM-CC, STEOM-CC
   Dmitry Ganyushin       : Spin-Orbit,Spin-Spin,Magnetic field MRCI
   Miquel Garcia          : C-PCM Hessian, Gaussian charge scheme
   Yang Guo               : DLPNO-NEVPT2, CIM, IAO-localization
   Andreas Hansen         : Spin unrestricted coupled pair/coupled cluster methods
   Benjamin Helmich-Paris : CASSCF linear response (MC-RPA)
   Lee Huntington         : MR-EOM, pCC
   Robert Izsak           : Overlap fitted RIJCOSX, COSX-SCS-MP3, EOM
   Christian Kollmar      : KDIIS, OOCD, Brueckner-CCSD(T), CCSD density
   Simone Kossmann        : Meta GGA functionals, TD-DFT gradient, OOMP2, MP2 Hessian
   Martin Krupicka        : AUTO-CI
   Lucas Lang             : DCDCAS
   Dagmar Lenk            : GEPOL surface, SMD
   Dimitrios Liakos       : Extrapolation schemes; Compound Job, initial MDCI parallelization
   Dimitrios Manganas     : Further ROCIS development; embedding schemes
   Dimitrios Pantazis     : SARC Basis sets
   Taras Petrenko         : DFT Hessian,TD-DFT gradient, ASA, ECA, R-Raman, ABS, FL, XAS/XES, NRVS
   Peter Pinski           : DLPNO-MP2, DLPNO-MP2 Gradient
   Christoph Reimann      : Effective Core Potentials
   Marius Retegan         : Local ZFS, SOC
   Christoph Riplinger    : Optimizer, TS searches, QM/MM, DLPNO-CCSD(T), (RO)-DLPNO pert. Triples
   Tobias Risthaus        : Range-separated hybrids, TD-DFT gradient, RPA, STAB
   Michael Roemelt        : Original ROCIS implementation
   Masaaki Saitow         : Open-shell DLPNO-CCSD energy and density
   Barbara Sandhoefer     : DKH picture change effects
   Avijit Sen             : IP-ROCIS
   Kantharuban Sivalingam : CASSCF convergence, NEVPT2, FIC-MRCI
   Bernardo de Souza      : ESD, SOC TD-DFT
   Georgi Stoychev        : AutoAux, RI-MP2 NMR
   Willem Van den Heuvel  : Paramagnetic NMR
   Boris Wezisla          : Elementary symmetry handling
   Frank Wennmohs         : Technical directorship


 We gratefully acknowledge several colleagues who have allowed us to
 interface, adapt or use parts of their codes:
   Stefan Grimme, W. Hujo, H. Kruse,             : VdW corrections, initial TS optimization,
                  C. Bannwarth                     DFT functionals, gCP, sTDA/sTD-DF
   Ed Valeev, F. Pavosevic, A. Kumar             : LibInt (2-el integral package), F12 methods
   Garnet Chan, S. Sharma, J. Yang, R. Olivares  : DMRG
   Ulf Ekstrom                                   : XCFun DFT Library
   Mihaly Kallay                                 : mrcc  (arbitrary order and MRCC methods)
   Andreas Klamt, Michael Diedenhofen            : otool_cosmo (COSMO solvation model)
   Jiri Pittner, Ondrej Demel                    : Mk-CCSD
   Frank Weinhold                                : gennbo (NPA and NBO analysis)
   Christopher J. Cramer and Donald G. Truhlar   : smd solvation model
   Lars Goerigk                                  : TD-DFT with DH, B97 family of functionals
   V. Asgeirsson, H. Jonsson                     : NEB implementation
   FAccTs GmbH                                   : IRC, NEB, NEB-TS, Multilevel, MM, QM/MM, CI optimization
   S Lehtola, MJT Oliveira, MAL Marques          : LibXC Library


 Your calculation uses the libint2 library for the computation of 2-el integrals
 For citations please refer to: http://libint.valeyev.net

 Your ORCA version has been built with support for libXC version: 4.2.3
 For citations please refer to: https://tddft.org/programs/libxc/

 This ORCA versions uses:
   CBLAS   interface :  Fast vector & matrix operations
   LAPACKE interface :  Fast linear algebra routines
   SCALAPACK package :  Parallel linear algebra routines


Your calculation utilizes the atom-pairwise dispersion correction
with the Becke-Johnson damping scheme (D3BJ)
Cite in your paper:
S.Grimme, S.Ehrlich, L.Goerigk, J Comput Chem, (2011), 32, 1456–1465 
S.Grimme, J.Antony, S.Ehrlich and H.Krieg, J.Chem.Phys., 132, (2010), 154104 
   

----- Orbital basis set information -----
Your calculation utilizes the basis: def2-SV(P)
   F. Weigend and R. Ahlrichs, Phys. Chem. Chem. Phys. 7, 3297 (2005).

----- AuxJ basis set information -----
Your calculation utilizes the auxiliary basis: def2/J
   F. Weigend, Phys. Chem. Chem. Phys. 8, 1057 (2006).

================================================================================
                                        WARNINGS
                       Please study these warnings very carefully!
================================================================================


WARNING: Geometry Optimization
  ===> : Switching off AutoStart
         For restart on a previous wavefunction, please use MOREAD

INFO   : the flag for use of LIBINT has been found!

================================================================================
                                       INPUT FILE
================================================================================
NAME = orca.inp
|  1> ! opt UKS B3LYP def2-SV(P) def2/J D3BJ 
|  2> %scf Convergence Tight SmearTemp 5000 end %pal nprocs 16 end 
|  3> *xyz 0 2 
|  4> C   5.03396473589789 0.92563552808329 -2.9214627082885
|  5> O   5.73758626429923 1.14494038330029 -1.7242400946163
|  6> C   5.2130905664668 0.67199244306238 -0.56542762885211
|  7> C   5.97744354232412 0.90251402482487 0.5919249142126
|  8> O   7.15461669354784 1.56937730278155 0.51710463152333
|  9> C   5.50185198796234 0.42954579920583 1.82829482106141
| 10> C   4.29422723767934 -0.26344685586856 1.92400084270229
| 11> C   3.52161465606634 -0.47248085028046 0.77322017014556
| 12> C   3.98926171294228 -0.00830716092456 -0.46422669859083
| 13> C   2.16269801344795 -1.16018713399503 0.910376744874
| 14> C   1.077752861865 -0.23282191000198 1.47485633645106
| 15> C   0.70617661952957 0.84144866935581 0.4650428491471
| 16> C   0.02618181915029 1.88546981847272 1.35209267717087
| 17> O   0.68135578420557 1.75156840298574 2.63257702207746
| 18> C   1.31081091031366 0.55658024834858 2.75307056383965
| 19> O   1.88798161197481 0.23064280706465 3.75558815452166
| 20> C   -0.05187355047431 0.20806725862036 -0.69633266510801
| 21> O   -1.38330692554472 -0.16446586836368 -0.32880816295634
| 22> C   -2.44646081908971 0.65767616113588 -0.72804294968143
| 23> O   -3.08410892080923 1.23809958470259 0.38357905173157
| 24> C   -4.18848232447961 0.46314425009577 0.90366750687618
| 25> C   -4.6362781715355 1.06658258216137 2.23001014639104
| 26> O   -5.55995439861492 2.12115368261501 2.04414597847726
| 27> C   -6.69147117239283 1.70023422114172 1.35523320269137
| 28> C   -7.68547049828197 2.8331932083657 1.26902114768559
| 29> O   -6.35446178117468 1.31158191814326 0.0208110988277
| 30> C   -5.28721877426669 0.47285566219262 -0.12709015876797
| 31> C   -4.82588533459267 0.3683393492586 -1.54791030577447
| 32> O   -5.60195173802969 -0.49313972401329 -2.37921003452854
| 33> C   -3.40620632712557 -0.18274991574842 -1.58234363711162
| 34> O   -2.90240319768812 -0.20884383190812 -2.89936952386597
| 35> C   0.65647635204993 -1.0550440259846 -1.17342659403574
| 36> C   1.6481408593496 -1.7088739012381 -0.41779022401268
| 37> C   2.24122893656106 -2.89925942996418 -0.90583950198206
| 38> C   1.80329361767541 -3.39535715011773 -2.11506902486397
| 39> O   2.22089580536572 -4.50654026556203 -2.79200960558542
| 40> C   1.34945465805813 -4.64363232789082 -3.91133497617377
| 41> O   0.57063842357129 -3.45596005221319 -4.00496397957875
| 42> C   0.79979964701502 -2.7540753242692 -2.85173845867796
| 43> C   0.20991272410562 -1.59170930721236 -2.40808874072186
| 44> O   6.32559493100994 0.72353342005816 2.87902170144733
| 45> C   5.89074676431639 0.40350777384891 4.18518825598485
| 46> H   4.89645830106904 -0.15514617921891 -3.1257399908515
| 47> H   5.64149459431964 1.37057117907811 -3.72497533593945
| 48> H   4.03864957671998 1.41289633454641 -2.91004148380108
| 49> H   7.49912557927797 1.62737743195366 1.42873604212777
| 50> H   3.92437003032019 -0.61107861091132 2.8863344828245
| 51> H   3.39463216101641 -0.19117442745655 -1.35753906891885
| 52> H   2.28693855685492 -2.00601277013871 1.60695976962093
| 53> H   0.1753067385431 -0.84606790196078 1.67193998421532
| 54> H   1.64023077668501 1.27098983365867 0.0625492692537
| 55> H   -1.05107525772295 1.68986524579093 1.47861646885341
| 56> H   0.17026533253776 2.92413684377822 1.01579272380511
| 57> H   -0.11629928599536 0.91758147676822 -1.54109096082889
| 58> H   -2.07199983125683 1.49556335825592 -1.34092228485166
| 59> H   -3.8268649130012 -0.56504825435043 1.08788492506814
| 60> H   -3.76793969140748 1.48214796508581 2.76215984868817
| 61> H   -5.09540391985197 0.27102486177624 2.85283918552744
| 62> H   -7.12409033551936 0.80660517305897 1.85713427144131
| 63> H   -7.21202232769581 3.69626308440055 0.77221134335227
| 64> H   -8.00135126674264 3.13018253911257 2.28204541850895
| 65> H   -8.5686407031761 2.51964773593583 0.68895164731816
| 66> H   -4.8133737586759 1.39006501062589 -1.98742358079045
| 67> H   -6.50483974646747 -0.13809953630262 -2.42537304513934
| 68> H   -3.42678382412393 -1.2041672554008 -1.15464389971661
| 69> H   -3.58140740074281 -0.65092858407546 -3.44148201674928
| 70> H   3.02638006795179 -3.40398109367742 -0.3386791343119
| 71> H   1.9466615239593 -4.77033327161807 -4.83095007797629
| 72> H   0.68264974647178 -5.51645930383859 -3.75750795399765
| 73> H   -0.60068439066372 -1.1111046736128 -2.96121417863434
| 74> H   4.90761955126206 0.86026279438771 4.40496407043008
| 75> H   6.64969162219072 0.80546286675912 4.87411746251773
| 76> H   5.81424398121298 -0.69199080667978 4.32458670488877
| 77> *
| 78> 
| 79>                          ****END OF INPUT****
================================================================================

                       *****************************
                       * Geometry Optimization Run *
                       *****************************

Geometry optimization settings:
Update method            Update   .... BFGS
Choice of coordinates    CoordSys .... Z-matrix Internals
Initial Hessian          InHess   .... Almoef's Model

Convergence Tolerances:
Energy Change            TolE     ....  5.0000e-06 Eh
Max. Gradient            TolMAXG  ....  3.0000e-04 Eh/bohr
RMS Gradient             TolRMSG  ....  1.0000e-04 Eh/bohr
Max. Displacement        TolMAXD  ....  4.0000e-03 bohr
RMS Displacement         TolRMSD  ....  2.0000e-03 bohr
Strict Convergence                ....  False
------------------------------------------------------------------------------
                        ORCA OPTIMIZATION COORDINATE SETUP
------------------------------------------------------------------------------

The optimization will be done in new redundant internal coordinates
Making redundant internal coordinates   ...  (new redundants) done
Evaluating the initial hessian          ...  (Almloef) done
Evaluating the coordinates              ...  done
Calculating the B-matrix                .... done
Calculating the G-matrix                .... done
Diagonalizing the G-matrix              .... done
Small eigenvalue found = 1.317e-03
Small eigenvalue found = 1.397e-03
Small eigenvalue found = 2.729e-03
Small eigenvalue found = 4.940e-03
Small eigenvalue found = 6.505e-03
Small eigenvalue found = 7.397e-03
Small eigenvalue found = 9.520e-03
Small eigenvalue found = 1.382e-02
Small eigenvalue found = 1.671e-02
Small eigenvalue found = 2.570e-02
The first mode is                       ....  222
The number of degrees of freedom        ....  213

    -----------------------------------------------------------------
                    Redundant Internal Coordinates


    -----------------------------------------------------------------
         Definition                    Initial Value    Approx d2E/dq
    -----------------------------------------------------------------
      1. B(O   1,C   0)                  1.4059         0.527871   
      2. B(C   2,O   1)                  1.3571         0.631573   
      3. B(C   3,C   2)                  1.4060         0.589127   
      4. B(O   4,C   3)                  1.3550         0.636365   
      5. B(C   5,C   3)                  1.4066         0.587854   
      6. B(C   6,C   5)                  1.3956         0.612029   
      7. B(C   7,C   6)                  1.4018         0.598386   
      8. B(C   8,C   2)                  1.4039         0.593793   
      9. B(C   8,C   7)                  1.4019         0.597991   
     10. B(C   9,C   7)                  1.5292         0.374695   
     11. B(C  10,C   9)                  1.5348         0.366984   
     12. B(C  11,C  10)                  1.5205         0.386876   
     13. B(C  12,C  11)                  1.5295         0.374324   
     14. B(O  13,C  12)                  1.4446         0.457921   
     15. B(C  14,C  10)                  1.5203         0.387131   
     16. B(C  14,O  13)                  1.3560         0.634051   
     17. B(O  15,C  14)                  1.2018         1.117079   
     18. B(C  16,C  11)                  1.5247         0.380968   
     19. B(O  17,C  16)                  1.4306         0.482088   
     20. B(C  18,O  17)                  1.4020         0.535465   
     21. B(O  19,C  18)                  1.4068         0.526033   
     22. B(C  20,O  19)                  1.4459         0.455676   
     23. B(C  21,C  20)                  1.5244         0.381317   
     24. B(O  22,C  21)                  1.4142         0.512074   
     25. B(C  23,O  22)                  1.3900         0.559594   
     26. B(C  24,C  23)                  1.5097         0.402563   
     27. B(O  25,C  23)                  1.4301         0.482870   
     28. B(C  26,O  25)                  1.3654         0.612502   
     29. B(C  26,C  20)                  1.5066         0.407142   
     30. B(C  27,C  26)                  1.4975         0.420961   
     31. B(O  28,C  27)                  1.4267         0.489009   
     32. B(C  29,C  27)                  1.5233         0.382916   
     33. B(C  29,C  18)                  1.5353         0.366323   
     34. B(O  30,C  29)                  1.4103         0.519309   
     35. B(C  31,C  16)                  1.5247         0.380865   
     36. B(C  32,C  31)                  1.4078         0.585265   
     37. B(C  32,C   9)                  1.5264         0.378568   
     38. B(C  33,C  32)                  1.4167         0.566478   
     39. B(C  34,C  33)                  1.3785         0.651867   
     40. B(O  35,C  34)                  1.3665         0.610016   
     41. B(C  36,O  35)                  1.4252         0.491783   
     42. B(O  37,C  36)                  1.4233         0.495096   
     43. B(C  38,O  37)                  1.3693         0.603727   
     44. B(C  38,C  34)                  1.4003         0.601530   
     45. B(C  39,C  38)                  1.3769         0.655571   
     46. B(C  39,C  31)                  1.4184         0.562925   
     47. B(O  40,C   5)                  1.3671         0.608673   
     48. B(C  41,O  40)                  1.4134         0.513582   
     49. B(H  42,C   0)                  1.1085         0.336466   
     50. B(H  43,C   0)                  1.1012         0.345555   
     51. B(H  44,C   0)                  1.1082         0.336756   
     52. B(H  45,O   4)                  0.9763         0.489771   
     53. B(H  46,C   6)                  1.0880         0.362765   
     54. B(H  47,C   8)                  1.0886         0.361968   
     55. B(H  48,C   9)                  1.1028         0.343607   
     56. B(H  49,C  10)                  1.1087         0.336134   
     57. B(H  50,C  11)                  1.1041         0.341964   
     58. B(H  51,C  12)                  1.1022         0.344370   
     59. B(H  52,C  12)                  1.1012         0.345558   
     60. B(H  53,C  16)                  1.1051         0.340707   
     61. B(H  54,C  18)                  1.1036         0.342571   
     62. B(H  55,C  20)                  1.1054         0.340308   
     63. B(H  56,C  21)                  1.0999         0.347175   
     64. B(H  57,C  21)                  1.1098         0.334854   
     65. B(H  58,C  23)                  1.1125         0.331543   
     66. B(H  59,C  24)                  1.1027         0.343734   
     67. B(H  60,C  24)                  1.1019         0.344687   
     68. B(H  61,C  24)                  1.1022         0.344354   
     69. B(H  62,C  27)                  1.1123         0.331754   
     70. B(H  63,O  28)                  0.9713         0.498844   
     71. B(H  64,C  29)                  1.1075         0.337629   
     72. B(H  65,O  30)                  0.9749         0.492314   
     73. B(H  66,C  33)                  1.0922         0.357216   
     74. B(H  67,C  36)                  1.1038         0.342284   
     75. B(H  68,C  36)                  1.1091         0.335690   
     76. B(H  69,C  39)                  1.0927         0.356544   
     77. B(H  70,C  41)                  1.1061         0.339415   
     78. B(H  71,C  41)                  1.1010         0.345846   
     79. B(H  72,C  41)                  1.1070         0.338326   
     80. A(O   1,C   0,H  42)          111.7842         0.337531   
     81. A(H  42,C   0,H  44)          108.6129         0.284769   
     82. A(H  43,C   0,H  44)          108.9866         0.285954   
     83. A(O   1,C   0,H  44)          111.8466         0.337579   
     84. A(O   1,C   0,H  43)          106.3929         0.339035   
     85. A(H  42,C   0,H  43)          109.1422         0.285916   
     86. A(C   0,O   1,C   2)          118.6446         0.417648   
     87. A(O   1,C   2,C   8)          124.5672         0.429319   
     88. A(C   3,C   2,C   8)          119.6061         0.426782   
     89. A(O   1,C   2,C   3)          115.8265         0.428712   
     90. A(C   2,C   3,O   4)          120.4992         0.429294   
     91. A(O   4,C   3,C   5)          120.5149         0.429127   
     92. A(C   2,C   3,C   5)          118.9859         0.426014   
     93. A(C   3,O   4,H  45)          106.5137         0.367977   
     94. A(C   3,C   5,O  40)          113.5485         0.425719   
     95. A(C   3,C   5,C   6)          121.3197         0.428936   
     96. A(C   6,C   5,O  40)          125.1311         0.428805   
     97. A(C   7,C   6,H  46)          119.4144         0.351235   
     98. A(C   5,C   6,C   7)          119.6485         0.430305   
     99. A(C   5,C   6,H  46)          120.8948         0.352577   
    100. A(C   8,C   7,C   9)          121.6346         0.394384   
    101. A(C   6,C   7,C   8)          119.4328         0.428517   
    102. A(C   6,C   7,C   9)          118.8968         0.394430   
    103. A(C   7,C   8,H  47)          119.1109         0.351066   
    104. A(C   2,C   8,H  47)          119.8967         0.350648   
    105. A(C   2,C   8,C   7)          120.9889         0.427925   
    106. A(C  10,C   9,C  32)          107.3925         0.363071   
    107. A(C   7,C   9,C  32)          112.5313         0.364364   
    108. A(C  32,C   9,H  48)          108.1742         0.322536   
    109. A(C  10,C   9,H  48)          108.1048         0.320899   
    110. A(C   7,C   9,C  10)          112.9191         0.362434   
    111. A(C   7,C   9,H  48)          107.5463         0.321993   
    112. A(C  14,C  10,H  49)          105.2194         0.322556   
    113. A(C  11,C  10,H  49)          108.0548         0.322521   
    114. A(C   9,C  10,H  49)          107.8507         0.319748   
    115. A(C  11,C  10,C  14)          103.2375         0.367773   
    116. A(C   9,C  10,C  14)          120.9695         0.364462   
    117. A(C   9,C  10,C  11)          110.8171         0.364421   
    118. A(C  10,C  11,H  50)          108.0741         0.323431   
    119. A(C  16,C  11,H  50)          107.7317         0.322616   
    120. A(C  12,C  11,H  50)          108.7839         0.321688   
    121. A(C  12,C  11,C  16)          120.2852         0.364696   
    122. A(C  10,C  11,C  16)          109.5049         0.366762   
    123. A(C  10,C  11,C  12)          101.8735         0.365658   
    124. A(H  51,C  12,H  52)          109.2891         0.286954   
    125. A(C  11,C  12,H  52)          114.1135         0.322239   
    126. A(C  11,C  12,H  51)          112.3330         0.322058   
    127. A(O  13,C  12,H  52)          107.3845         0.331118   
    128. A(C  11,C  12,O  13)          104.4289         0.374054   
    129. A(O  13,C  12,H  51)          108.9707         0.330930   
    130. A(C  12,O  13,C  14)          111.7763         0.407524   
    131. A(O  13,C  14,O  15)          122.4151         0.478763   
    132. A(C  10,C  14,O  15)          129.3557         0.440474   
    133. A(C  10,C  14,O  13)          108.1627         0.398188   
    134. A(C  31,C  16,H  53)          108.6493         0.322408   
    135. A(O  17,C  16,H  53)          108.0185         0.333171   
    136. A(C  11,C  16,C  31)          110.5795         0.365779   
    137. A(C  11,C  16,H  53)          110.1546         0.322422   
    138. A(C  11,C  16,O  17)          112.0379         0.378542   
    139. A(O  17,C  16,C  31)          107.2796         0.378525   
    140. A(C  16,O  17,C  18)          118.6786         0.399160   
    141. A(C  29,C  18,H  54)          108.5840         0.320646   
    142. A(O  19,C  18,H  54)          106.2224         0.338347   
    143. A(O  17,C  18,H  54)          110.2466         0.339352   
    144. A(O  17,C  18,O  19)          111.1392         0.405345   
    145. A(O  19,C  18,C  29)          112.4684         0.381707   
    146. A(O  17,C  18,C  29)          108.1485         0.382887   
    147. A(C  18,O  19,C  20)          114.1594         0.394001   
    148. A(C  26,C  20,H  55)          111.0141         0.325896   
    149. A(C  21,C  20,H  55)          108.6207         0.322408   
    150. A(O  19,C  20,H  55)          107.9755         0.330013   
    151. A(C  21,C  20,C  26)          112.2404         0.370049   
    152. A(O  19,C  20,C  26)          107.9072         0.379205   
    153. A(O  19,C  20,C  21)          108.9752         0.374933   
    154. A(C  20,C  21,O  22)          111.8826         0.382585   
    155. A(H  56,C  21,H  57)          109.0209         0.285910   
    156. A(C  20,C  21,H  57)          109.0294         0.321556   
    157. A(O  22,C  21,H  56)          107.3062         0.337584   
    158. A(C  20,C  21,H  56)          109.7910         0.323466   
    159. A(O  22,C  21,H  57)          109.7624         0.335559   
    160. A(C  21,O  22,C  23)          111.7786         0.406578   
    161. A(C  24,C  23,H  58)          111.8730         0.323899   
    162. A(O  22,C  23,H  58)          109.6458         0.339997   
    163. A(C  24,C  23,O  25)          107.8075         0.382286   
    164. A(O  22,C  23,O  25)          110.6657         0.402385   
    165. A(O  22,C  23,C  24)          109.6961         0.392240   
    166. A(O  25,C  23,H  58)          107.1154         0.331757   
    167. A(H  59,C  24,H  61)          109.2441         0.286715   
    168. A(H  59,C  24,H  60)          109.0467         0.286758   
    169. A(C  23,C  24,H  60)          109.7867         0.325975   
    170. A(C  23,C  24,H  59)          109.2949         0.325827   
    171. A(C  23,C  24,H  61)          110.1304         0.325923   
    172. A(H  60,C  24,H  61)          109.3180         0.286839   
    173. A(C  23,O  25,C  26)          116.8843         0.408858   
    174. A(O  25,C  26,C  27)          112.7334         0.401651   
    175. A(C  20,C  26,C  27)          115.0885         0.376411   
    176. A(C  20,C  26,O  25)          119.9925         0.399297   
    177. A(C  29,C  27,H  62)          108.2340         0.321287   
    178. A(O  28,C  27,H  62)          109.3011         0.332487   
    179. A(C  26,C  27,H  62)          108.3160         0.326321   
    180. A(O  28,C  27,C  29)          105.9823         0.379813   
    181. A(C  26,C  27,C  29)          109.5006         0.372448   
    182. A(C  26,C  27,O  28)          115.3030         0.386116   
    183. A(C  27,O  28,H  63)          108.2176         0.352926   
    184. A(C  18,C  29,H  64)          107.5515         0.319885   
    185. A(C  27,C  29,O  30)          111.1450         0.383798   
    186. A(C  18,C  29,O  30)          107.8447         0.380856   
    187. A(C  18,C  29,C  27)          111.8378         0.363668   
    188. A(C  27,C  29,H  64)          107.9148         0.322212   
    189. A(O  30,C  29,H  64)          110.4992         0.336806   
    190. A(C  29,O  30,H  65)          106.1932         0.355745   
    191. A(C  16,C  31,C  32)          122.9593         0.394026   
    192. A(C  32,C  31,C  39)          120.8824         0.422228   
    193. A(C  16,C  31,C  39)          116.0750         0.391351   
    194. A(C  31,C  32,C  33)          120.0158         0.422703   
    195. A(C   9,C  32,C  33)          117.4314         0.391368   
    196. A(C   9,C  32,C  31)          122.5178         0.393609   
    197. A(C  32,C  33,C  34)          118.1391         0.430944   
    198. A(C  34,C  33,H  66)          121.1722         0.355434   
    199. A(C  32,C  33,H  66)          120.6881         0.347101   
    200. A(O  35,C  34,C  38)          109.3158         0.427646   
    201. A(C  33,C  34,C  38)          121.6238         0.435622   
    202. A(C  33,C  34,O  35)          129.0591         0.433862   
    203. A(C  34,O  35,C  36)          106.2857         0.409890   
    204. A(O  35,C  36,O  37)          107.8170         0.395082   
    205. A(H  67,C  36,H  68)          110.5177         0.285390   
    206. A(O  35,C  36,H  68)          109.5354         0.333451   
    207. A(O  37,C  36,H  67)          109.6954         0.334903   
    208. A(O  35,C  36,H  67)          109.5453         0.334530   
    209. A(O  37,C  36,H  68)          109.6833         0.333823   
    210. A(C  36,O  37,C  38)          106.3040         0.409625   
    211. A(O  37,C  38,C  39)          129.2248         0.433495   
    212. A(C  34,C  38,C  39)          121.6075         0.436067   
    213. A(C  34,C  38,O  37)          109.1618         0.426852   
    214. A(C  31,C  39,C  38)          117.7101         0.430895   
    215. A(C  38,C  39,H  69)          121.7360         0.355663   
    216. A(C  31,C  39,H  69)          120.5156         0.346624   
    217. A(C   5,O  40,C  41)          118.4379         0.412894   
    218. A(H  71,C  41,H  72)          109.2773         0.286199   
    219. A(H  70,C  41,H  72)          108.7967         0.285363   
    220. A(O  40,C  41,H  72)          111.2059         0.336300   
    221. A(H  70,C  41,H  71)          109.7307         0.286343   
    222. A(O  40,C  41,H  71)          106.4708         0.337534   
    223. A(O  40,C  41,H  70)          111.3206         0.336480   
    224. D(C   2,O   1,C   0,H  42)    -59.9340         0.022120   
    225. D(C   2,O   1,C   0,H  44)     62.1079         0.022120   
    226. D(C   2,O   1,C   0,H  43)   -178.9900         0.022120   
    227. D(C   8,C   2,O   1,C   0)     -1.3065         0.029346   
    228. D(C   3,C   2,O   1,C   0)    178.8558         0.029346   
    229. D(C   5,C   3,C   2,C   8)      0.7287         0.023881   
    230. D(O   4,C   3,C   2,C   8)   -179.3129         0.023881   
    231. D(C   5,C   3,C   2,O   1)   -179.4251         0.023881   
    232. D(O   4,C   3,C   2,O   1)      0.5333         0.023881   
    233. D(H  45,O   4,C   3,C   2)    178.9634         0.029827   
    234. D(H  45,O   4,C   3,C   5)     -1.0788         0.029827   
    235. D(C   6,C   5,C   3,C   2)      0.1945         0.023773   
    236. D(O  40,C   5,C   3,O   4)      0.5336         0.023773   
    237. D(O  40,C   5,C   3,C   2)   -179.5080         0.023773   
    238. D(C   6,C   5,C   3,O   4)   -179.7639         0.023773   
    239. D(C   7,C   6,C   5,C   3)     -1.3013         0.025880   
    240. D(C   7,C   6,C   5,O  40)    178.3652         0.025880   
    241. D(H  46,C   6,C   5,C   3)   -178.9233         0.025880   
    242. D(H  46,C   6,C   5,O  40)      0.7433         0.025880   
    243. D(C   8,C   7,C   6,H  46)    179.1226         0.024677   
    244. D(C   9,C   7,C   6,H  46)      1.2630         0.024677   
    245. D(C   9,C   7,C   6,C   5)   -176.3944         0.024677   
    246. D(C   8,C   7,C   6,C   5)      1.4651         0.024677   
    247. D(H  47,C   8,C   7,C   6)    178.7734         0.024643   
    248. D(C   2,C   8,C   7,C   6)     -0.5517         0.024643   
    249. D(H  47,C   8,C   7,C   9)     -3.4276         0.024643   
    250. D(H  47,C   8,C   2,O   1)      0.2954         0.024280   
    251. D(C   2,C   8,C   7,C   9)    177.2473         0.024643   
    252. D(H  47,C   8,C   2,C   3)   -179.8727         0.024280   
    253. D(C   7,C   8,C   2,C   3)     -0.5528         0.024280   
    254. D(C   7,C   8,C   2,O   1)    179.6152         0.024280   
    255. D(H  48,C   9,C   7,C   6)    -42.8515         0.010495   
    256. D(C  32,C   9,C   7,C   8)     20.3039         0.010495   
    257. D(H  48,C   9,C   7,C   8)    139.3381         0.010495   
    258. D(C  32,C   9,C   7,C   6)   -161.8857         0.010495   
    259. D(C  10,C   9,C   7,C   8)   -101.4828         0.010495   
    260. D(C  10,C   9,C   7,C   6)     76.3276         0.010495   
    261. D(H  49,C  10,C   9,C  32)     63.1567         0.010777   
    262. D(C  14,C  10,C   9,H  48)     67.6427         0.010777   
    263. D(C  14,C  10,C   9,C  32)   -175.8516         0.010777   
    264. D(H  49,C  10,C   9,H  48)    -53.3490         0.010777   
    265. D(C  14,C  10,C   9,C   7)    -51.2126         0.010777   
    266. D(C  11,C  10,C   9,H  48)   -171.4342         0.010777   
    267. D(C  11,C  10,C   9,C  32)    -54.9285         0.010777   
    268. D(C  11,C  10,C   9,C   7)     69.7105         0.010777   
    269. D(H  49,C  10,C   9,C   7)   -172.2044         0.010777   
    270. D(H  50,C  11,C  10,C  14)     84.0304         0.011908   
    271. D(H  50,C  11,C  10,C   9)    -46.8882         0.011908   
    272. D(C  16,C  11,C  10,H  49)    -47.7538         0.011908   
    273. D(C  16,C  11,C  10,C  14)   -158.8743         0.011908   
    274. D(C  16,C  11,C  10,C   9)     70.2071         0.011908   
    275. D(C  12,C  11,C  10,H  49)     80.6485         0.011908   
    276. D(C  12,C  11,C  10,C  14)    -30.4721         0.011908   
    277. D(H  50,C  11,C  10,H  49)   -164.8490         0.011908   
    278. D(C  12,C  11,C  10,C   9)   -161.3907         0.011908   
    279. D(H  52,C  12,C  11,C  10)    147.4838         0.011186   
    280. D(H  51,C  12,C  11,H  50)    158.6160         0.011186   
    281. D(H  51,C  12,C  11,C  16)     33.7845         0.011186   
    282. D(H  51,C  12,C  11,C  10)    -87.4067         0.011186   
    283. D(O  13,C  12,C  11,H  50)    -83.4412         0.011186   
    284. D(O  13,C  12,C  11,C  16)    151.7274         0.011186   
    285. D(H  52,C  12,C  11,C  16)    -91.3249         0.011186   
    286. D(O  13,C  12,C  11,C  10)     30.5361         0.011186   
    287. D(H  52,C  12,C  11,H  50)     33.5065         0.011186   
    288. D(C  14,O  13,C  12,H  52)   -140.7988         0.016518   
    289. D(C  14,O  13,C  12,H  51)    100.9297         0.016518   
    290. D(C  14,O  13,C  12,C  11)    -19.2920         0.016518   
    291. D(C  10,C  14,O  13,C  12)     -0.7368         0.029594   
    292. D(O  15,C  14,C  10,H  49)     84.3187         0.011159   
    293. D(O  15,C  14,C  10,C  11)   -162.4803         0.011159   
    294. D(O  15,C  14,C  10,C   9)    -37.9417         0.011159   
    295. D(O  13,C  14,C  10,H  49)    -92.7232         0.011159   
    296. D(O  13,C  14,C  10,C  11)     20.4778         0.011159   
    297. D(O  15,C  14,O  13,C  12)   -178.0275         0.029594   
    298. D(O  13,C  14,C  10,C   9)    145.0164         0.011159   
    299. D(H  53,C  16,C  11,H  50)    -49.2151         0.011564   
    300. D(H  53,C  16,C  11,C  12)     76.1106         0.011564   
    301. D(H  53,C  16,C  11,C  10)   -166.5256         0.011564   
    302. D(C  31,C  16,C  11,H  50)     70.8947         0.011564   
    303. D(C  31,C  16,C  11,C  12)   -163.7796         0.011564   
    304. D(O  17,C  16,C  11,C  10)     73.2064         0.011564   
    305. D(O  17,C  16,C  11,C  12)    -44.1574         0.011564   
    306. D(O  17,C  16,C  11,H  50)   -169.4831         0.011564   
    307. D(C  31,C  16,C  11,C  10)    -46.4158         0.011564   
    308. D(C  18,O  17,C  16,H  53)    -19.4185         0.018337   
    309. D(C  18,O  17,C  16,C  31)   -136.3771         0.018337   
    310. D(C  18,O  17,C  16,C  11)    102.0853         0.018337   
    311. D(H  54,C  18,O  17,C  16)      2.6232         0.022791   
    312. D(C  29,C  18,O  17,C  16)    121.2022         0.022791   
    313. D(O  19,C  18,O  17,C  16)   -114.8845         0.022791   
    314. D(C  20,O  19,C  18,H  54)    149.0706         0.021960   
    315. D(C  20,O  19,C  18,C  29)     30.4177         0.021960   
    316. D(C  20,O  19,C  18,O  17)    -91.0013         0.021960   
    317. D(H  55,C  20,O  19,C  18)     52.6386         0.016355   
    318. D(C  26,C  20,O  19,C  18)    -67.4296         0.016355   
    319. D(C  21,C  20,O  19,C  18)    170.4483         0.016355   
    320. D(H  57,C  21,C  20,H  55)    -35.5270         0.011584   
    321. D(H  57,C  21,C  20,C  26)     87.6071         0.011584   
    322. D(H  57,C  21,C  20,O  19)   -152.9286         0.011584   
    323. D(H  56,C  21,C  20,H  55)     83.8469         0.011584   
    324. D(H  56,C  21,C  20,C  26)   -153.0191         0.011584   
    325. D(H  56,C  21,C  20,O  19)    -33.5547         0.011584   
    326. D(O  22,C  21,C  20,H  55)   -157.1256         0.011584   
    327. D(O  22,C  21,C  20,C  26)    -33.9915         0.011584   
    328. D(O  22,C  21,C  20,O  19)     85.4728         0.011584   
    329. D(C  23,O  22,C  21,H  57)    -62.6761         0.020764   
    330. D(C  23,O  22,C  21,H  56)    178.9856         0.020764   
    331. D(C  23,O  22,C  21,C  20)     58.4995         0.020764   
    332. D(H  58,C  23,O  22,C  21)     52.7762         0.025007   
    333. D(O  25,C  23,O  22,C  21)    -65.1690         0.025007   
    334. D(C  24,C  23,O  22,C  21)    176.0029         0.025007   
    335. D(H  61,C  24,C  23,H  58)    -60.3611         0.012852   
    336. D(H  61,C  24,C  23,O  22)    177.7342         0.012852   
    337. D(H  60,C  24,C  23,H  58)     60.0574         0.012852   
    338. D(H  60,C  24,C  23,O  25)    177.5759         0.012852   
    339. D(H  60,C  24,C  23,O  22)    -61.8473         0.012852   
    340. D(H  59,C  24,C  23,H  58)    179.6219         0.012852   
    341. D(H  61,C  24,C  23,O  25)     57.1574         0.012852   
    342. D(H  59,C  24,C  23,O  25)    -62.8596         0.012852   
    343. D(H  59,C  24,C  23,O  22)     57.7172         0.012852   
    344. D(C  26,O  25,C  23,H  58)    -71.2731         0.018398   
    345. D(C  26,O  25,C  23,C  24)    168.1735         0.018398   
    346. D(C  26,O  25,C  23,O  22)     48.2072         0.018398   
    347. D(C  27,C  26,C  20,O  19)     39.0194         0.012284   
    348. D(O  25,C  26,C  20,H  55)    141.1633         0.012284   
    349. D(O  25,C  26,C  20,C  21)     19.3855         0.012284   
    350. D(O  25,C  26,C  20,O  19)   -100.7013         0.012284   
    351. D(C  27,C  26,O  25,C  23)   -167.1765         0.027477   
    352. D(C  20,C  26,O  25,C  23)    -26.5844         0.027477   
    353. D(C  27,C  26,C  20,H  55)    -79.1160         0.012284   
    354. D(C  27,C  26,C  20,C  21)    159.1062         0.012284   
    355. D(H  62,C  27,C  26,O  25)     43.5988         0.013102   
    356. D(H  62,C  27,C  26,C  20)    -99.0208         0.013102   
    357. D(C  29,C  27,C  26,O  25)    161.4308         0.013102   
    358. D(C  29,C  27,C  26,C  20)     18.8112         0.013102   
    359. D(O  28,C  27,C  26,O  25)    -79.1950         0.013102   
    360. D(O  28,C  27,C  26,C  20)    138.1855         0.013102   
    361. D(H  63,O  28,C  27,H  62)    -60.0606         0.018881   
    362. D(H  63,O  28,C  27,C  29)   -176.4947         0.018881   
    363. D(H  63,O  28,C  27,C  26)     62.2071         0.018881   
    364. D(H  64,C  29,C  27,H  62)   -179.3492         0.011677   
    365. D(H  64,C  29,C  27,O  28)    -62.1971         0.011677   
    366. D(H  64,C  29,C  27,C  26)     62.7676         0.011677   
    367. D(O  30,C  29,C  27,O  28)     59.1111         0.011677   
    368. D(O  30,C  29,C  27,C  26)   -175.9243         0.011677   
    369. D(C  18,C  29,C  27,H  62)     62.5530         0.011677   
    370. D(C  18,C  29,C  27,O  28)    179.7052         0.011677   
    371. D(C  18,C  29,C  27,C  26)    -55.3302         0.011677   
    372. D(H  64,C  29,C  18,H  54)    155.8854         0.010741   
    373. D(H  64,C  29,C  18,O  19)    -86.8565         0.010741   
    374. D(H  64,C  29,C  18,O  17)     36.2537         0.010741   
    375. D(O  30,C  29,C  18,H  54)     36.6974         0.010741   
    376. D(O  30,C  29,C  18,O  19)    153.9554         0.010741   
    377. D(O  30,C  29,C  27,H  62)    -58.0411         0.011677   
    378. D(O  30,C  29,C  18,O  17)    -82.9343         0.010741   
    379. D(C  27,C  29,C  18,H  54)    -85.8002         0.010741   
    380. D(C  27,C  29,C  18,O  19)     31.4578         0.010741   
    381. D(C  27,C  29,C  18,O  17)    154.5681         0.010741   
    382. D(H  65,O  30,C  29,H  64)     69.5640         0.021379   
    383. D(H  65,O  30,C  29,C  27)    -50.2182         0.021379   
    384. D(H  65,O  30,C  29,C  18)   -173.1405         0.021379   
    385. D(C  39,C  31,C  16,H  53)    -46.9094         0.010821   
    386. D(C  39,C  31,C  16,O  17)     69.6345         0.010821   
    387. D(C  39,C  31,C  16,C  11)   -167.9172         0.010821   
    388. D(C  32,C  31,C  16,H  53)    136.3882         0.010821   
    389. D(C  32,C  31,C  16,O  17)   -107.0680         0.010821   
    390. D(C  32,C  31,C  16,C  11)     15.3804         0.010821   
    391. D(C  33,C  32,C  31,C  39)      1.7919         0.023554   
    392. D(C  33,C  32,C  31,C  16)    178.3404         0.023554   
    393. D(C   9,C  32,C  31,C  39)    179.5828         0.023554   
    394. D(C   9,C  32,C  31,C  16)     -3.8686         0.023554   
    395. D(C  33,C  32,C   9,H  48)    -42.9008         0.010699   
    396. D(C  33,C  32,C   9,C  10)   -159.3608         0.010699   
    397. D(C  33,C  32,C   9,C   7)     75.7662         0.010699   
    398. D(C  31,C  32,C   9,H  48)    139.2543         0.010699   
    399. D(C  31,C  32,C   9,C  10)     22.7942         0.010699   
    400. D(C  31,C  32,C   9,C   7)   -102.0787         0.010699   
    401. D(H  66,C  33,C  32,C  31)    178.7023         0.022001   
    402. D(H  66,C  33,C  32,C   9)      0.8009         0.022001   
    403. D(C  34,C  33,C  32,C  31)     -1.0254         0.022001   
    404. D(C  34,C  33,C  32,C   9)   -178.9267         0.022001   
    405. D(C  38,C  34,C  33,H  66)   -179.8309         0.029599   
    406. D(C  38,C  34,C  33,C  32)     -0.1046         0.029599   
    407. D(O  35,C  34,C  33,H  66)     -0.2801         0.029599   
    408. D(O  35,C  34,C  33,C  32)    179.4461         0.029599   
    409. D(C  36,O  35,C  34,C  38)     -6.4748         0.027239   
    410. D(C  36,O  35,C  34,C  33)    173.9305         0.027239   
    411. D(H  68,C  36,O  35,C  34)   -108.9464         0.019101   
    412. D(H  67,C  36,O  35,C  34)    129.6806         0.019101   
    413. D(O  37,C  36,O  35,C  34)     10.3570         0.019101   
    414. D(C  38,O  37,C  36,H  68)    108.8934         0.019367   
    415. D(C  38,O  37,C  36,H  67)   -129.5440         0.019367   
    416. D(C  38,O  37,C  36,O  35)    -10.3160         0.019367   
    417. D(C  39,C  38,O  37,C  36)   -174.5091         0.026642   
    418. D(C  34,C  38,O  37,C  36)      6.3806         0.026642   
    419. D(C  39,C  38,C  34,O  35)   -179.1246         0.024951   
    420. D(C  39,C  38,C  34,C  33)      0.5058         0.024951   
    421. D(O  37,C  38,C  34,O  35)      0.0662         0.024951   
    422. D(O  37,C  38,C  34,C  33)    179.6965         0.024951   
    423. D(H  69,C  39,C  38,C  34)   -177.5227         0.029960   
    424. D(C  31,C  39,C  38,O  37)   -178.7777         0.029960   
    425. D(C  31,C  39,C  38,C  34)      0.2355         0.029960   
    426. D(H  69,C  39,C  31,C  32)    176.4123         0.021715   
    427. D(H  69,C  39,C  31,C  16)     -0.3638         0.021715   
    428. D(C  38,C  39,C  31,C  32)     -1.3745         0.021715   
    429. D(H  69,C  39,C  38,O  37)      3.4641         0.029960   
    430. D(C  38,C  39,C  31,C  16)   -178.1506         0.021715   
    431. D(C  41,O  40,C   5,C   6)     -5.3097         0.027111   
    432. D(C  41,O  40,C   5,C   3)    174.3796         0.027111   
    433. D(H  72,C  41,O  40,C   5)     66.2687         0.020892   
    434. D(H  71,C  41,O  40,C   5)   -174.7853         0.020892   
    435. D(H  70,C  41,O  40,C   5)    -55.2272         0.020892   
    -----------------------------------------------------------------

Number of atoms                         .... 73
Number of degrees of freedom            .... 435

Time needed for optimization step       :    27.92 sec

         *************************************************************
         *                GEOMETRY OPTIMIZATION CYCLE   1            *
         *************************************************************
---------------------------------
CARTESIAN COORDINATES (ANGSTROEM)
---------------------------------
  C      5.033965    0.925636   -2.921463
  O      5.737586    1.144940   -1.724240
  C      5.213091    0.671992   -0.565428
  C      5.977444    0.902514    0.591925
  O      7.154617    1.569377    0.517105
  C      5.501852    0.429546    1.828295
  C      4.294227   -0.263447    1.924001
  C      3.521615   -0.472481    0.773220
  C      3.989262   -0.008307   -0.464227
  C      2.162698   -1.160187    0.910377
  C      1.077753   -0.232822    1.474856
  C      0.706177    0.841449    0.465043
  C      0.026182    1.885470    1.352093
  O      0.681356    1.751568    2.632577
  C      1.310811    0.556580    2.753071
  O      1.887982    0.230643    3.755588
  C     -0.051874    0.208067   -0.696333
  O     -1.383307   -0.164466   -0.328808
  C     -2.446461    0.657676   -0.728043
  O     -3.084109    1.238100    0.383579
  C     -4.188482    0.463144    0.903668
  C     -4.636278    1.066583    2.230010
  O     -5.559954    2.121154    2.044146
  C     -6.691471    1.700234    1.355233
  C     -7.685470    2.833193    1.269021
  O     -6.354462    1.311582    0.020811
  C     -5.287219    0.472856   -0.127090
  C     -4.825885    0.368339   -1.547910
  O     -5.601952   -0.493140   -2.379210
  C     -3.406206   -0.182750   -1.582344
  O     -2.902403   -0.208844   -2.899370
  C      0.656476   -1.055044   -1.173427
  C      1.648141   -1.708874   -0.417790
  C      2.241229   -2.899259   -0.905840
  C      1.803294   -3.395357   -2.115069
  O      2.220896   -4.506540   -2.792010
  C      1.349455   -4.643632   -3.911335
  O      0.570638   -3.455960   -4.004964
  C      0.799800   -2.754075   -2.851738
  C      0.209913   -1.591709   -2.408089
  O      6.325595    0.723533    2.879022
  C      5.890747    0.403508    4.185188
  H      4.896458   -0.155146   -3.125740
  H      5.641495    1.370571   -3.724975
  H      4.038650    1.412896   -2.910041
  H      7.499126    1.627377    1.428736
  H      3.924370   -0.611079    2.886334
  H      3.394632   -0.191174   -1.357539
  H      2.286939   -2.006013    1.606960
  H      0.175307   -0.846068    1.671940
  H      1.640231    1.270990    0.062549
  H     -1.051075    1.689865    1.478616
  H      0.170265    2.924137    1.015793
  H     -0.116299    0.917581   -1.541091
  H     -2.072000    1.495563   -1.340922
  H     -3.826865   -0.565048    1.087885
  H     -3.767940    1.482148    2.762160
  H     -5.095404    0.271025    2.852839
  H     -7.124090    0.806605    1.857134
  H     -7.212022    3.696263    0.772211
  H     -8.001351    3.130183    2.282045
  H     -8.568641    2.519648    0.688952
  H     -4.813374    1.390065   -1.987424
  H     -6.504840   -0.138100   -2.425373
  H     -3.426784   -1.204167   -1.154644
  H     -3.581407   -0.650929   -3.441482
  H      3.026380   -3.403981   -0.338679
  H      1.946662   -4.770333   -4.830950
  H      0.682650   -5.516459   -3.757508
  H     -0.600684   -1.111105   -2.961214
  H      4.907620    0.860263    4.404964
  H      6.649692    0.805463    4.874117
  H      5.814244   -0.691991    4.324587

----------------------------
CARTESIAN COORDINATES (A.U.)
----------------------------
  NO LB      ZA    FRAG     MASS         X           Y           Z
   0 C     6.0000    0    12.011    9.512815    1.749198   -5.520764
   1 O     8.0000    0    15.999   10.842467    2.163624   -3.258342
   2 C     6.0000    0    12.011    9.851313    1.269882   -1.068503
   3 C     6.0000    0    12.011   11.295731    1.705504    1.118576
   4 O     8.0000    0    15.999   13.520266    2.965693    0.977186
   5 C     6.0000    0    12.011   10.396993    0.811724    3.454977
   6 C     6.0000    0    12.011    8.114913   -0.497842    3.635835
   7 C     6.0000    0    12.011    6.654887   -0.892859    1.461174
   8 C     6.0000    0    12.011    7.538612   -0.015698   -0.877261
   9 C     6.0000    0    12.011    4.086907   -2.192436    1.720363
  10 C     6.0000    0    12.011    2.036658   -0.439970    2.787075
  11 C     6.0000    0    12.011    1.334480    1.590108    0.878804
  12 C     6.0000    0    12.011    0.049476    3.563022    2.555085
  13 O     8.0000    0    15.999    1.287576    3.309985    4.974850
  14 C     6.0000    0    12.011    2.477074    1.051784    5.202549
  15 O     8.0000    0    15.999    3.567768    0.435852    7.097033
  16 C     6.0000    0    12.011   -0.098027    0.393190   -1.315878
  17 O     8.0000    0    15.999   -2.614071   -0.310795   -0.621357
  18 C     6.0000    0    12.011   -4.623141    1.242828   -1.375802
  19 O     8.0000    0    15.999   -5.828121    2.339669    0.724859
  20 C     6.0000    0    12.011   -7.915085    0.875216    1.707684
  21 C     6.0000    0    12.011   -8.761296    2.015549    4.214108
  22 O     8.0000    0    15.999  -10.506791    4.008400    3.862876
  23 C     6.0000    0    12.011  -12.645048    3.212977    2.561020
  24 C     6.0000    0    12.011  -14.523434    5.353959    2.398102
  25 O     8.0000    0    15.999  -12.008192    2.478531    0.039327
  26 C     6.0000    0    12.011   -9.991395    0.893568   -0.240166
  27 C     6.0000    0    12.011   -9.119602    0.696060   -2.925127
  28 O     8.0000    0    15.999  -10.586155   -0.931899   -4.496055
  29 C     6.0000    0    12.011   -6.436797   -0.345347   -2.990196
  30 O     8.0000    0    15.999   -5.484747   -0.394658   -5.479014
  31 C     6.0000    0    12.011    1.240561   -1.993744   -2.217455
  32 C     6.0000    0    12.011    3.114535   -3.229304   -0.789509
  33 C     6.0000    0    12.011    4.235309   -5.478806   -1.711789
  34 C     6.0000    0    12.011    3.407731   -6.416295   -3.996901
  35 O     8.0000    0    15.999    4.196885   -8.516127   -5.276134
  36 C     6.0000    0    12.011    2.550100   -8.775193   -7.391352
  37 O     8.0000    0    15.999    1.078350   -6.530818   -7.568285
  38 C     6.0000    0    12.011    1.511402   -5.204448   -5.389005
  39 C     6.0000    0    12.011    0.396678   -3.007895   -4.550628
  40 O     8.0000    0    15.999   11.953642    1.367280    5.440563
  41 C     6.0000    0    12.011   11.131898    0.762519    7.908860
  42 H     1.0000    0     1.008    9.252965   -0.293184   -5.906793
  43 H     1.0000    0     1.008   10.660880    2.590004   -7.039183
  44 H     1.0000    0     1.008    7.631942    2.669987   -5.499181
  45 H     1.0000    0     1.008   14.171294    3.075298    2.699920
  46 H     1.0000    0     1.008    7.415985   -1.154771    5.454382
  47 H     1.0000    0     1.008    6.414925   -0.361267   -2.565377
  48 H     1.0000    0     1.008    4.321688   -3.790815    3.036714
  49 H     1.0000    0     1.008    0.331282   -1.598837    3.159509
  50 H     1.0000    0     1.008    3.099587    2.401823    0.118201
  51 H     1.0000    0     1.008   -1.986244    3.193383    2.794180
  52 H     1.0000    0     1.008    0.321755    5.525818    1.919570
  53 H     1.0000    0     1.008   -0.219774    1.733978   -2.912240
  54 H     1.0000    0     1.008   -3.915512    2.826205   -2.533976
  55 H     1.0000    0     1.008   -7.231727   -1.067786    2.055805
  56 H     1.0000    0     1.008   -7.120374    2.800854    5.219726
  57 H     1.0000    0     1.008   -9.628918    0.512163    5.391085
  58 H     1.0000    0     1.008  -13.462580    1.524263    3.509475
  59 H     1.0000    0     1.008  -13.628747    6.984925    1.459268
  60 H     1.0000    0     1.008  -15.120363    5.915188    4.312441
  61 H     1.0000    0     1.008  -16.192384    4.761444    1.301930
  62 H     1.0000    0     1.008   -9.095958    2.626842   -3.755686
  63 H     1.0000    0     1.008  -12.292366   -0.260970   -4.583291
  64 H     1.0000    0     1.008   -6.475683   -2.275546   -2.181961
  65 H     1.0000    0     1.008   -6.767879   -1.230077   -6.503459
  66 H     1.0000    0     1.008    5.719030   -6.432592   -0.640011
  67 H     1.0000    0     1.008    3.678657   -9.014623   -9.129173
  68 H     1.0000    0     1.008    1.290021  -10.424597   -7.100661
  69 H     1.0000    0     1.008   -1.135129   -2.099684   -5.595884
  70 H     1.0000    0     1.008    9.274057    1.625661    8.324176
  71 H     1.0000    0     1.008   12.566096    1.522104    9.210747
  72 H     1.0000    0     1.008   10.987329   -1.307673    8.172285

--------------------------------
INTERNAL COORDINATES (ANGSTROEM)
--------------------------------
 C      0   0   0     0.000000000000     0.00000000     0.00000000
 O      1   0   0     1.405887570697     0.00000000     0.00000000
 C      2   1   0     1.357063676483   118.64461661     0.00000000
 C      3   2   1     1.406001628839   115.82649816   178.85580646
 O      4   3   2     1.355006027349   120.49918855     0.53334440
 C      4   3   2     1.406590493209   118.98588746   180.57490407
 C      6   4   3     1.395620292222   121.31972018     0.19449791
 C      7   6   4     1.401756600989   119.64852004   358.69869304
 C      8   7   6     1.401936423894   119.43282639     1.46514787
 C      8   7   6     1.529184848289   118.89680756   183.60562255
 C     10   8   7     1.534845089878   112.91906136    76.32761182
 C     11  10   8     1.520476721520   110.81707558    69.71045292
 C     12  11  10     1.529454309793   101.87352466   198.60930233
 O     13  12  11     1.444583909334   104.42894260    30.53610989
 C     14  13  12     1.355997470172   111.77633206   340.70797520
 O     15  14  13     1.201833080803   122.41514649   181.97245483
 C     12  11  10     1.524665588521   109.50487237    70.20709034
 O     17  12  11     1.430583804827   112.03789180    73.20644325
 C     18  17  12     1.401999334151   118.67855252   102.08528209
 O     19  18  17     1.406836851336   111.13918491   245.11550439
 C     20  19  18     1.445921293344   114.15942383   268.99869922
 C     21  20  19     1.524415868010   108.97523173   170.44825600
 O     22  21  20     1.414158218623   111.88262327    85.47280165
 C     23  22  21     1.390001516197   111.77861504    58.49953619
 C     24  23  22     1.509656664619   109.69611018   176.00285405
 O     24  23  22     1.430142752901   110.66571466   294.83100776
 C     26  24  23     1.365409883593   116.88431403    48.20719265
 C     27  26  24     1.497491933992   112.73336187   192.82349929
 O     28  27  26     1.426704067162   115.30296736   280.80504133
 C     28  27  26     1.523277229054   109.50057315   161.43078004
 O     30  28  27     1.410338850090   111.14499931   184.07574716
 C     17  12  11     1.524738770650   110.57945043   313.58422731
 C     32  17  12     1.407792003285   122.95926883    15.38037300
 C     33  32  17     1.416673311691   120.01577674   178.34043939
 C     34  33  32     1.378454326584   118.13911358   358.97464907
 O     35  34  33     1.366516759151   129.05913963   179.44607325
 C     36  35  34     1.425164268433   106.28571540   173.93053875
 O     37  36  35     1.423336415536   107.81703101    10.35704013
 C     38  37  36     1.369337847176   106.30403689   349.68403708
 C     39  38  37     1.376911911369   129.22476675   185.49093456
 O      6   4   3     1.367116723108   113.54846010   180.49199932
 C     41   6   4     1.413357849414   118.43791553   174.37955690
 H      1   2   3     1.108479285611   111.78415914   300.06600131
 H      1   2   3     1.101223322126   106.39289748   181.01001186
 H      1   2   3     1.108244469408   111.84661393    62.10791587
 H      5   4   3     0.976279783736   106.51365558   178.96343095
 H      7   6   4     1.087992750831   120.89482609   181.07672473
 H      9   8   7     1.088591627826   119.11089718   178.77342530
 H     10   8   7     1.102762272545   107.54630440   317.14847563
 H     11  10   8     1.108747769499   107.85065870   187.79558431
 H     12  11  10     1.104066964539   108.07413047   313.11182022
 H     13  12  11     1.102157987037   112.33297347   272.59326279
 H     13  12  11     1.101220644068   114.11349513   147.48376608
 H     17  12  11     1.105069083515   110.15460503   193.47439264
 H     19  18  17     1.103583737641   110.24663997     2.62317218
 H     21  20  19     1.105388183241   107.97545522    52.63860724
 H     22  21  20     1.099949821224   109.79103941   326.44527620
 H     22  21  20     1.109785813219   109.02941667   207.07142874
 H     24  23  22     1.112491302750   109.64583513    52.77621760
 H     25  24  23     1.102661671970   109.29485603    57.71720895
 H     25  24  23     1.101908115833   109.78666004   298.15269512
 H     25  24  23     1.102171039064   110.13044082   177.73419260
 H     28  27  26     1.112318203368   108.31597833    43.59880225
 H     29  28  27     0.971283333646   108.21756628    62.20712085
 H     30  28  27     1.107539561593   107.91475262    62.76758132
 H     31  30  28     0.974870037905   106.19320464   309.78177991
 H     34  33  32     1.092189150102   120.68813724   178.70225374
 H     37  36  35     1.103812078791   109.54527028   129.68060087
 H     37  36  35     1.109107061022   109.53543243   251.05364924
 H     40  39  38     1.092701352784   121.73603681     3.46410943
 H     42  41   6     1.106103826253   111.32059284   304.77278944
 H     42  41   6     1.100994389461   106.47076168   185.21471490
 H     42  41   6     1.106978655314   111.20589539    66.26871901

---------------------------
INTERNAL COORDINATES (A.U.)
---------------------------
 C      0   0   0     0.000000000000     0.00000000     0.00000000
 O      1   0   0     2.656742483701     0.00000000     0.00000000
 C      2   1   0     2.564478694846   118.64461661     0.00000000
 C      3   2   1     2.656958022353   115.82649816   178.85580646
 O      4   3   2     2.560590301501   120.49918855     0.53334440
 C      4   3   2     2.658070814743   118.98588746   180.57490407
 C      6   4   3     2.637340139242   121.31972018     0.19449791
 C      7   6   4     2.648936082286   119.64852004   358.69869304
 C      8   7   6     2.649275898328   119.43282639     1.46514787
 C      8   7   6     2.889740571408   118.89680756   183.60562255
 C     10   8   7     2.900436877863   112.91906136    76.32761182
 C     11  10   8     2.873284596674   110.81707558    69.71045292
 C     12  11  10     2.890249779854   101.87352466   198.60930233
 O     13  12  11     2.729867966110   104.42894260    30.53610989
 C     14  13  12     2.562463856915   111.77633206   340.70797520
 O     15  14  13     2.271135381405   122.41514649   181.97245483
 C     12  11  10     2.881200408118   109.50487237    70.20709034
 O     17  12  11     2.703411602746   112.03789180    73.20644325
 C     18  17  12     2.649394781486   118.67855252   102.08528209
 O     19  18  17     2.658536364133   111.13918491   245.11550439
 C     20  19  18     2.732395255625   114.15942383   268.99869922
 C     21  20  19     2.880728504743   108.97523173   170.44825600
 O     22  21  20     2.672371743231   111.88262327    85.47280165
 C     23  22  21     2.626722191347   111.77861504    58.49953619
 C     24  23  22     2.852837652379   109.69611018   176.00285405
 O     24  23  22     2.702578135395   110.66571466   294.83100776
 C     26  24  23     2.580250740540   116.88431403    48.20719265
 C     27  26  24     2.829849643000   112.73336187   192.82349929
 O     28  27  26     2.696079961087   115.30296736   280.80504133
 C     28  27  26     2.878576788951   109.50057315   161.43078004
 O     30  28  27     2.665154182699   111.14499931   184.07574716
 C     17  12  11     2.881338702300   110.57945043   313.58422731
 C     32  17  12     2.660341339733   122.95926883    15.38037300
 C     33  32  17     2.677124580331   120.01577674   178.34043939
 C     34  33  32     2.604901165363   118.13911358   358.97464907
 O     35  34  33     2.582342432208   129.05913963   179.44607325
 C     36  35  34     2.693170163188   106.28571540   173.93053875
 O     37  36  35     2.689716021801   107.81703101    10.35704013
 C     38  37  36     2.587673515976   106.30403689   349.68403708
 C     39  38  37     2.601986423022   129.22476675   185.49093456
 O      6   4   3     2.583476199777   113.54846010   180.49199932
 C     41   6   4     2.670859264621   118.43791553   174.37955690
 H      1   2   3     2.094722274930   111.78415914   300.06600131
 H      1   2   3     2.081010491105   106.39289748   181.01001186
 H      1   2   3     2.094278536614   111.84661393    62.10791587
 H      5   4   3     1.844901421345   106.51365558   178.96343095
 H      7   6   4     2.056008334762   120.89482609   181.07672473
 H      9   8   7     2.057140048271   119.11089718   178.77342530
 H     10   8   7     2.083918685931   107.54630440   317.14847563
 H     11  10   8     2.095229635949   107.85065870   187.79558431
 H     12  11  10     2.086384196488   108.07413047   313.11182022
 H     13  12  11     2.082776751814   112.33297347   272.59326279
 H     13  12  11     2.081005430308   114.11349513   147.48376608
 H     17  12  11     2.088277926907   110.15460503   193.47439264
 H     19  18  17     2.085471029990   110.24663997     2.62317218
 H     21  20  19     2.088880937998   107.97545522    52.63860724
 H     22  21  20     2.078603923169   109.79103941   326.44527620
 H     22  21  20     2.097191254296   109.02941667   207.07142874
 H     24  23  22     2.102303888566   109.64583513    52.77621760
 H     25  24  23     2.083728578395   109.29485603    57.71720895
 H     25  24  23     2.082304563669   109.78666004   298.15269512
 H     25  24  23     2.082801416570   110.13044082   177.73419260
 H     28  27  26     2.101976778141   108.31597833    43.59880225
 H     29  28  27     1.835459499034   108.21756628    62.20712085
 H     30  28  27     2.092946453893   107.91475262    62.76758132
 H     31  30  28     1.842237387806   106.19320464   309.78177991
 H     34  33  32     2.063938380134   120.68813724   178.70225374
 H     37  36  35     2.085902532229   109.54527028   129.68060087
 H     37  36  35     2.095908598530   109.53543243   251.05364924
 H     40  39  38     2.064906302927   121.73603681     3.46410943
 H     42  41   6     2.090233307300   111.32059284   304.77278944
 H     42  41   6     2.080577871065   106.47076168   185.21471490
 H     42  41   6     2.091886494639   111.20589539    66.26871901

---------------------
BASIS SET INFORMATION
---------------------
There are 3 groups of distinct atoms

 Group   1 Type C   : 7s4p1d contracted to 3s2p1d pattern {511/31/1}
 Group   2 Type O   : 7s4p1d contracted to 3s2p1d pattern {511/31/1}
 Group   3 Type H   : 4s contracted to 2s pattern {31}

Atom   0C    basis set group =>   1
Atom   1O    basis set group =>   2
Atom   2C    basis set group =>   1
Atom   3C    basis set group =>   1
Atom   4O    basis set group =>   2
Atom   5C    basis set group =>   1
Atom   6C    basis set group =>   1
Atom   7C    basis set group =>   1
Atom   8C    basis set group =>   1
Atom   9C    basis set group =>   1
Atom  10C    basis set group =>   1
Atom  11C    basis set group =>   1
Atom  12C    basis set group =>   1
Atom  13O    basis set group =>   2
Atom  14C    basis set group =>   1
Atom  15O    basis set group =>   2
Atom  16C    basis set group =>   1
Atom  17O    basis set group =>   2
Atom  18C    basis set group =>   1
Atom  19O    basis set group =>   2
Atom  20C    basis set group =>   1
Atom  21C    basis set group =>   1
Atom  22O    basis set group =>   2
Atom  23C    basis set group =>   1
Atom  24C    basis set group =>   1
Atom  25O    basis set group =>   2
Atom  26C    basis set group =>   1
Atom  27C    basis set group =>   1
Atom  28O    basis set group =>   2
Atom  29C    basis set group =>   1
Atom  30O    basis set group =>   2
Atom  31C    basis set group =>   1
Atom  32C    basis set group =>   1
Atom  33C    basis set group =>   1
Atom  34C    basis set group =>   1
Atom  35O    basis set group =>   2
Atom  36C    basis set group =>   1
Atom  37O    basis set group =>   2
Atom  38C    basis set group =>   1
Atom  39C    basis set group =>   1
Atom  40O    basis set group =>   2
Atom  41C    basis set group =>   1
Atom  42H    basis set group =>   3
Atom  43H    basis set group =>   3
Atom  44H    basis set group =>   3
Atom  45H    basis set group =>   3
Atom  46H    basis set group =>   3
Atom  47H    basis set group =>   3
Atom  48H    basis set group =>   3
Atom  49H    basis set group =>   3
Atom  50H    basis set group =>   3
Atom  51H    basis set group =>   3
Atom  52H    basis set group =>   3
Atom  53H    basis set group =>   3
Atom  54H    basis set group =>   3
Atom  55H    basis set group =>   3
Atom  56H    basis set group =>   3
Atom  57H    basis set group =>   3
Atom  58H    basis set group =>   3
Atom  59H    basis set group =>   3
Atom  60H    basis set group =>   3
Atom  61H    basis set group =>   3
Atom  62H    basis set group =>   3
Atom  63H    basis set group =>   3
Atom  64H    basis set group =>   3
Atom  65H    basis set group =>   3
Atom  66H    basis set group =>   3
Atom  67H    basis set group =>   3
Atom  68H    basis set group =>   3
Atom  69H    basis set group =>   3
Atom  70H    basis set group =>   3
Atom  71H    basis set group =>   3
Atom  72H    basis set group =>   3
---------------------------------
AUXILIARY/J BASIS SET INFORMATION
---------------------------------
There are 3 groups of distinct atoms

 Group   1 Type C   : 12s5p4d2f1g contracted to 6s4p3d1f1g pattern {711111/2111/211/2/1}
 Group   2 Type O   : 12s5p4d2f1g contracted to 6s4p3d1f1g pattern {711111/2111/211/2/1}
 Group   3 Type H   : 5s2p1d contracted to 3s1p1d pattern {311/2/1}

Atom   0C    basis set group =>   1
Atom   1O    basis set group =>   2
Atom   2C    basis set group =>   1
Atom   3C    basis set group =>   1
Atom   4O    basis set group =>   2
Atom   5C    basis set group =>   1
Atom   6C    basis set group =>   1
Atom   7C    basis set group =>   1
Atom   8C    basis set group =>   1
Atom   9C    basis set group =>   1
Atom  10C    basis set group =>   1
Atom  11C    basis set group =>   1
Atom  12C    basis set group =>   1
Atom  13O    basis set group =>   2
Atom  14C    basis set group =>   1
Atom  15O    basis set group =>   2
Atom  16C    basis set group =>   1
Atom  17O    basis set group =>   2
Atom  18C    basis set group =>   1
Atom  19O    basis set group =>   2
Atom  20C    basis set group =>   1
Atom  21C    basis set group =>   1
Atom  22O    basis set group =>   2
Atom  23C    basis set group =>   1
Atom  24C    basis set group =>   1
Atom  25O    basis set group =>   2
Atom  26C    basis set group =>   1
Atom  27C    basis set group =>   1
Atom  28O    basis set group =>   2
Atom  29C    basis set group =>   1
Atom  30O    basis set group =>   2
Atom  31C    basis set group =>   1
Atom  32C    basis set group =>   1
Atom  33C    basis set group =>   1
Atom  34C    basis set group =>   1
Atom  35O    basis set group =>   2
Atom  36C    basis set group =>   1
Atom  37O    basis set group =>   2
Atom  38C    basis set group =>   1
Atom  39C    basis set group =>   1
Atom  40O    basis set group =>   2
Atom  41C    basis set group =>   1
Atom  42H    basis set group =>   3
Atom  43H    basis set group =>   3
Atom  44H    basis set group =>   3
Atom  45H    basis set group =>   3
Atom  46H    basis set group =>   3
Atom  47H    basis set group =>   3
Atom  48H    basis set group =>   3
Atom  49H    basis set group =>   3
Atom  50H    basis set group =>   3
Atom  51H    basis set group =>   3
Atom  52H    basis set group =>   3
Atom  53H    basis set group =>   3
Atom  54H    basis set group =>   3
Atom  55H    basis set group =>   3
Atom  56H    basis set group =>   3
Atom  57H    basis set group =>   3
Atom  58H    basis set group =>   3
Atom  59H    basis set group =>   3
Atom  60H    basis set group =>   3
Atom  61H    basis set group =>   3
Atom  62H    basis set group =>   3
Atom  63H    basis set group =>   3
Atom  64H    basis set group =>   3
Atom  65H    basis set group =>   3
Atom  66H    basis set group =>   3
Atom  67H    basis set group =>   3
Atom  68H    basis set group =>   3
Atom  69H    basis set group =>   3
Atom  70H    basis set group =>   3
Atom  71H    basis set group =>   3
Atom  72H    basis set group =>   3


           ************************************************************
           *        Program running with 16 parallel MPI-processes    *
           *              working on a common directory               *
           ************************************************************
------------------------------------------------------------------------------
                           ORCA GTO INTEGRAL CALCULATION
------------------------------------------------------------------------------

                         BASIS SET STATISTICS AND STARTUP INFO

 # of primitive gaussian shells          ...  628
 # of primitive gaussian functions       ... 1132
 # of contracted shells                  ...  314
 # of contracted basis functions         ...  650
 Highest angular momentum                ...    2
 Maximum contraction depth               ...    5
 Integral package used                   ... LIBINT
 Integral threshhold            Thresh   ...  2.500e-11
 Primitive cut-off              TCut     ...  2.500e-12


------------------------------ INTEGRAL EVALUATION ----------------------------


 * One electron integrals 
 Pre-screening matrix                    ... done
 Shell pair data                         ... done (   0.011 sec)



           ************************************************************
           *        Program running with 16 parallel MPI-processes    *
           *              working on a common directory               *
           ************************************************************
-------------------------------------------------------------------------------
                                 ORCA SCF
-------------------------------------------------------------------------------

------------
SCF SETTINGS
------------
Hamiltonian:
 Density Functional     Method          .... DFT(GTOs)
 Exchange Functional    Exchange        .... B88
   X-Alpha parameter    XAlpha          ....  0.666667
   Becke's b parameter  XBeta           ....  0.004200
 Correlation Functional Correlation     .... LYP
 LDA part of GGA corr.  LDAOpt          .... VWN-5
 Gradients option       PostSCFGGA      .... off
 Hybrid DFT is turned on
   Fraction HF Exchange ScalHFX         ....  0.200000
   Scaling of DF-GGA-X  ScalDFX         ....  0.720000
   Scaling of DF-GGA-C  ScalDFC         ....  0.810000
   Scaling of DF-LDA-C  ScalLDAC        ....  1.000000
   Perturbative correction              ....  0.000000
   Density functional embedding theory  .... OFF
   NL short-range parameter             ....  4.800000


General Settings:
 Integral files         IntName         .... orca
 Hartree-Fock type      HFTyp           .... UHF
 Total Charge           Charge          ....    0
 Multiplicity           Mult            ....    2
 Number of Electrons    NEL             ....  309
 Basis Dimension        Dim             ....  650
 Nuclear Repulsion      ENuc            ....   5246.7512778670 Eh

Convergence Acceleration:
 DIIS                   CNVDIIS         .... on
   Start iteration      DIISMaxIt       ....    12
   Startup error        DIISStart       ....  0.200000
   # of expansion vecs  DIISMaxEq       ....     5
   Bias factor          DIISBfac        ....   1.050
   Max. coefficient     DIISMaxC        ....  10.000
 Newton-Raphson         CNVNR           .... off
 SOSCF                  CNVSOSCF        .... off
 Level Shifting         CNVShift        .... on
   Level shift para.    LevelShift      ....    0.2500
   Turn off err/grad.   ShiftErr        ....    0.0010
 Zerner damping         CNVZerner       .... off
 Static damping         CNVDamp         .... on
   Fraction old density DampFac         ....    0.7000
   Max. Damping (<1)    DampMax         ....    0.9800
   Min. Damping (>=0)   DampMin         ....    0.0000
   Turn off err/grad.   DampErr         ....    0.1000
 Fernandez-Rico         CNVRico         .... off

SCF Procedure:
 Maximum # iterations   MaxIter         ....   125
 SCF integral mode      SCFMode         .... Direct
   Integral package                     .... LIBINT
 Reset frequency        DirectResetFreq ....    20
 Integral Threshold     Thresh          ....  2.500e-11 Eh
 Primitive CutOff       TCut            ....  2.500e-12 Eh

Convergence Tolerance:
 Convergence Check Mode ConvCheckMode   .... Total+1el-Energy
 Convergence forced     ConvForced      .... 0
 Energy Change          TolE            ....  1.000e-08 Eh
 1-El. energy change                    ....  1.000e-05 Eh
 DIIS Error             TolErr          ....  5.000e-07


Diagonalization of the overlap matrix:
Smallest eigenvalue                        ... 1.441e-04
Time for diagonalization                   ...    0.144 sec
Threshold for overlap eigenvalues          ... 1.000e-08
Number of eigenvalues below threshold      ... 0
Time for construction of square roots      ...    7.520 sec
Total time needed                          ...    7.667 sec

-------------------
DFT GRID GENERATION
-------------------

General Integration Accuracy     IntAcc      ...  4.340
Radial Grid Type                 RadialGrid  ... Gauss-Chebyshev
Angular Grid (max. acc.)         AngularGrid ... Lebedev-110
Angular grid pruning method      GridPruning ... 3 (G Style)
Weight generation scheme         WeightScheme... Becke
Basis function cutoff            BFCut       ...    1.0000e-11
Integration weight cutoff        WCut        ...    1.0000e-14
Grids for H and He will be reduced by one unit

# of grid points (after initial pruning)     ...  94946 (   0.0 sec)
# of grid points (after weights+screening)   ...  82659 (   0.7 sec)
nearest neighbour list constructed           ...    0.0 sec
Grid point re-assignment to atoms done       ...    0.0 sec
Grid point division into batches done        ...    0.1 sec
Reduced shell lists constructed in    0.2 sec

Total number of grid points                  ...    82659
Total number of batches                      ...     1328
Average number of points per batch           ...       62
Average number of grid points per atom       ...     1132
Average number of shells per batch           ...   100.39 (31.97%)
Average number of basis functions per batch  ...   195.56 (30.09%)
Average number of large shells per batch     ...    61.44 (61.20%)
Average number of large basis fcns per batch ...   124.85 (63.84%)
Maximum spatial batch extension              ...  14.35, 18.59,  7.55 au
Average spatial batch extension              ...   0.18,  0.21,  0.14 au

Time for grid setup =   38.270 sec

------------------------------
INITIAL GUESS: MODEL POTENTIAL
------------------------------
Loading Hartree-Fock densities                     ... done
Calculating cut-offs                               ... done
Setting up the integral package                    ... done
Initializing the effective Hamiltonian             ... done
Starting the Coulomb interaction                   ... done (   0.3 sec)
Reading the grid                                   ... done
Mapping shells                                     ... done
Starting the XC term evaluation                    ... done (   0.2 sec)
  promolecular density results
     # of electrons  =    308.996583453
     EX              =   -265.135708912
     EC              =    -10.780465848
     EX+EC           =   -275.916174759
Transforming the Hamiltonian                       ... done (   0.1 sec)
Diagonalizing the Hamiltonian                      ... done (   0.1 sec)
Back transforming the eigenvectors                 ... done (   0.0 sec)
Now organizing SCF variables                       ... done
                      ------------------
                      INITIAL GUESS DONE (  57.9 sec)
                      ------------------
--------------
SCF ITERATIONS
--------------
ITER       Energy         Delta-E        Max-DP      RMS-DP      [F,P]     Damp
               ***  Starting incremental Fock matrix formation  ***
  0  -2097.9252236675   0.000000000000 0.08138924  0.00075983  0.2612131 0.7000
  1  -2098.3079893946  -0.382765727010 0.05578624  0.00051363  0.1038577 0.7000
                               ***Turning on DIIS***
  2  -2098.4659201278  -0.157930733278 0.06054538  0.00083666  0.0332385 0.0000
  3  -2098.7103939915  -0.244473863679 0.04329594  0.00035100  0.0521522 0.0000
  4  -2098.7546399169  -0.044245925407 0.00807005  0.00010462  0.0129291 0.0000
  5  -2098.7571905599  -0.002550642998 0.00466456  0.00003813  0.0084645 0.0000
  6  -2098.7574484041  -0.000257844227 0.00195404  0.00001468  0.0036742 0.0000
  7  -2098.7574963824  -0.000047978223 0.00051398  0.00000551  0.0011253 0.0000
  8  -2098.7575107493  -0.000014366969 0.00059313  0.00000588  0.0001540 0.0000
  9  -2098.7575988005  -0.000088051109 0.00023590  0.00000181  0.0001384 0.0000
 10  -2098.7575995930  -0.000000792512 0.00013146  0.00000086  0.0000639 0.0000
 11  -2098.7575997916  -0.000000198627 0.00007203  0.00000045  0.0000403 0.0000
 12  -2098.7575998554  -0.000000063852 0.00004996  0.00000025  0.0000357 0.0000
 13  -2098.7575998817  -0.000000026268 0.00002896  0.00000013  0.0000145 0.0000
 14  -2098.7575999051  -0.000000023383 0.00002447  0.00000011  0.0000101 0.0000
 15  -2098.7575999161  -0.000000011057 0.00001178  0.00000006  0.0000029 0.0000
 16  -2098.7575999163  -0.000000000114 0.00000679  0.00000004  0.0000013 0.0000
                            ***DIIS convergence achieved***

 Fermi smearing  (ALPHA): E(HOMO(Eh)) = -0.192190 MUE = -0.100565 gap=   4.791 eV
 Fermi smearing   (BETA): E(HOMO(Eh)) = -0.191289 MUE = -0.124258 gap=   3.475 eV

N_FOD(alpha) =  0.016967
 N_FOD(beta) =  0.046160
       N_FOD =  0.063127

               *****************************************************
               *                     SUCCESS                       *
               *           SCF CONVERGED AFTER  17 CYCLES          *
               *****************************************************

Setting up the final grid:

General Integration Accuracy     IntAcc      ...  4.670
Radial Grid Type                 RadialGrid  ... Gauss-Chebyshev
Angular Grid (max. acc.)         AngularGrid ... Lebedev-302
Angular grid pruning method      GridPruning ... 3 (G Style)
Weight generation scheme         WeightScheme... Becke
Basis function cutoff            BFCut       ...    1.0000e-11
Integration weight cutoff        WCut        ...    1.0000e-14
Grids for H and He will be reduced by one unit

# of grid points (after initial pruning)     ... 366118 (   0.0 sec)
# of grid points (after weights+screening)   ... 310009 (   1.4 sec)
nearest neighbour list constructed           ...    0.0 sec
Grid point re-assignment to atoms done       ...    0.1 sec
Grid point division into batches done        ...    1.1 sec
Reduced shell lists constructed in    1.4 sec

Total number of grid points                  ...   310009
Total number of batches                      ...     4882
Average number of points per batch           ...       63
Average number of grid points per atom       ...     4247
Average number of shells per batch           ...    92.71 (29.53%)
Average number of basis functions per batch  ...   180.32 (27.74%)
Average number of large shells per batch     ...    55.29 (59.63%)
Average number of large basis fcns per batch ...   111.64 (61.91%)
Maximum spatial batch extension              ...  14.28, 16.77,  9.24 au
Average spatial batch extension              ...   0.11,  0.13,  0.10 au

Final grid set up in   25.4 sec
Final integration                            ... done (  64.2 sec)
Change in XC energy                          ...     0.000018705
Integrated number of electrons               ...   309.000405058
Previous integrated no of electrons          ...   309.004096403

----------------
TOTAL SCF ENERGY
----------------

Total Energy       :        -2098.75758119 Eh          -57110.09721 eV

Components:
Nuclear Repulsion  :         5246.75127787 Eh          142771.36063 eV
Electronic Energy  :        -7345.50885906 Eh         -199881.45783 eV
One Electron Energy:       -13315.61150985 Eh         -362336.21000 eV
[...]
      pz      :     0.000103  p :     0.000265
      px      :     0.000324
      py      :    -0.000162
      dz2     :     0.000017  d :     0.000058
      dxz     :     0.000005
      dyz     :    -0.000040
      dx2y2   :     0.000071
      dxy     :     0.000006
 25 O s       :     0.004428  s :     0.004428
      pz      :     0.004699  p :     0.143817
      px      :     0.028546
      py      :     0.110572
      dz2     :     0.000017  d :     0.003360
      dxz     :     0.000258
      dyz     :     0.000051
      dx2y2   :     0.002702
      dxy     :     0.000332
 26 C s       :     0.052344  s :     0.052344
      pz      :     0.026103  p :     0.630399
      px      :     0.140515
      py      :     0.463782
      dz2     :    -0.001292  d :     0.001889
      dxz     :    -0.000706
      dyz     :     0.000052
      dx2y2   :     0.004238
      dxy     :    -0.000403
 27 C s       :    -0.001573  s :    -0.001573
      pz      :    -0.003619  p :    -0.009454
      px      :    -0.002394
      py      :    -0.003442
      dz2     :     0.000647  d :     0.012957
      dxz     :     0.002700
      dyz     :     0.009372
      dx2y2   :     0.000139
      dxy     :     0.000098
 28 O s       :     0.003624  s :     0.003624
      pz      :     0.014818  p :     0.020260
      px      :     0.001415
      py      :     0.004027
      dz2     :    -0.000045  d :    -0.000061
      dxz     :    -0.000002
      dyz     :    -0.000016
      dx2y2   :    -0.000020
      dxy     :     0.000022
 29 C s       :     0.000063  s :     0.000063
      pz      :     0.000733  p :     0.001582
      px      :     0.000563
      py      :     0.000286
      dz2     :     0.000029  d :    -0.000158
      dxz     :    -0.000039
      dyz     :    -0.000017
      dx2y2   :    -0.000079
      dxy     :    -0.000053
 30 O s       :     0.000140  s :     0.000140
      pz      :    -0.000297  p :     0.001734
      px      :     0.001303
      py      :     0.000728
      dz2     :     0.000001  d :     0.000003
      dxz     :     0.000002
      dyz     :    -0.000002
      dx2y2   :     0.000000
      dxy     :     0.000001
 31 C s       :     0.000031  s :     0.000031
      pz      :     0.000232  p :     0.001020
      px      :     0.000492
      py      :     0.000296
      dz2     :     0.000023  d :     0.000056
      dxz     :     0.000005
      dyz     :     0.000008
      dx2y2   :     0.000016
      dxy     :     0.000004
 32 C s       :     0.000032  s :     0.000032
      pz      :     0.000260  p :     0.001069
      px      :     0.000497
      py      :     0.000313
      dz2     :     0.000003  d :     0.000048
      dxz     :     0.000001
      dyz     :     0.000007
      dx2y2   :     0.000036
      dxy     :     0.000001
 33 C s       :     0.000019  s :     0.000019
      pz      :     0.000170  p :     0.000789
      px      :     0.000401
      py      :     0.000217
      dz2     :     0.000019  d :     0.000051
      dxz     :     0.000012
      dyz     :     0.000003
      dx2y2   :     0.000010
      dxy     :     0.000008
 34 C s       :     0.000030  s :     0.000030
      pz      :     0.000276  p :     0.001205
      px      :     0.000578
      py      :     0.000351
      dz2     :     0.000014  d :     0.000051
      dxz     :     0.000003
      dyz     :     0.000009
      dx2y2   :     0.000023
      dxy     :     0.000003
 35 O s       :     0.000017  s :     0.000017
      pz      :     0.000180  p :     0.000676
      px      :     0.000313
      py      :     0.000183
      dz2     :     0.000001  d :     0.000006
      dxz     :     0.000001
      dyz     :     0.000000
      dx2y2   :     0.000003
      dxy     :     0.000001
 36 C s       :    -0.000009  s :    -0.000009
      pz      :    -0.000009  p :    -0.000036
      px      :    -0.000010
      py      :    -0.000017
      dz2     :     0.000009  d :     0.000030
      dxz     :     0.000002
      dyz     :     0.000001
      dx2y2   :     0.000004
      dxy     :     0.000014
 37 O s       :     0.000016  s :     0.000016
      pz      :     0.000143  p :     0.000647
      px      :     0.000326
      py      :     0.000178
      dz2     :     0.000002  d :     0.000003
      dxz     :     0.000001
      dyz     :     0.000000
      dx2y2   :     0.000000
      dxy     :     0.000000
 38 C s       :     0.000014  s :     0.000014
      pz      :     0.000183  p :     0.000830
      px      :     0.000404
      py      :     0.000243
      dz2     :     0.000011  d :     0.000073
      dxz     :     0.000006
      dyz     :     0.000015
      dx2y2   :     0.000039
      dxy     :     0.000002
 39 C s       :     0.000035  s :     0.000035
      pz      :     0.000283  p :     0.001140
      px      :     0.000510
      py      :     0.000348
      dz2     :     0.000012  d :     0.000038
      dxz     :     0.000007
      dyz     :     0.000002
      dx2y2   :     0.000011
      dxy     :     0.000006
 40 O s       :     0.000026  s :     0.000026
      pz      :     0.000025  p :     0.001006
      px      :     0.000221
      py      :     0.000760
      dz2     :    -0.000000  d :     0.000002
      dxz     :     0.000000
      dyz     :     0.000002
      dx2y2   :     0.000000
      dxy     :     0.000000
 41 C s       :    -0.000006  s :    -0.000006
      pz      :    -0.000023  p :    -0.000038
      px      :    -0.000008
      py      :    -0.000007
      dz2     :     0.000001  d :     0.000025
      dxz     :     0.000003
      dyz     :     0.000010
      dx2y2   :     0.000009
      dxy     :     0.000002
 42 H s       :     0.000090  s :     0.000090
 43 H s       :     0.000001  s :     0.000001
 44 H s       :     0.000096  s :     0.000096
 45 H s       :    -0.000058  s :    -0.000058
 46 H s       :    -0.000021  s :    -0.000021
 47 H s       :    -0.000017  s :    -0.000017
 48 H s       :     0.000157  s :     0.000157
 49 H s       :     0.000047  s :     0.000047
 50 H s       :     0.000031  s :     0.000031
 51 H s       :     0.000287  s :     0.000287
 52 H s       :     0.000004  s :     0.000004
 53 H s       :     0.000062  s :     0.000062
 54 H s       :    -0.000018  s :    -0.000018
 55 H s       :     0.010939  s :     0.010939
 56 H s       :    -0.000908  s :    -0.000908
 57 H s       :     0.000340  s :     0.000340
 58 H s       :     0.007895  s :     0.007895
 59 H s       :     0.000355  s :     0.000355
 60 H s       :    -0.000011  s :    -0.000011
 61 H s       :    -0.000043  s :    -0.000043
 62 H s       :     0.025044  s :     0.025044
 63 H s       :     0.001576  s :     0.001576
 64 H s       :    -0.000155  s :    -0.000155
 65 H s       :     0.000251  s :     0.000251
 66 H s       :    -0.000028  s :    -0.000028
 67 H s       :     0.000071  s :     0.000071
 68 H s       :     0.000121  s :     0.000121
 69 H s       :    -0.000032  s :    -0.000032
 70 H s       :     0.000059  s :     0.000059
 71 H s       :     0.000002  s :     0.000002
 72 H s       :     0.000063  s :     0.000063


                      *****************************
                      * MAYER POPULATION ANALYSIS *
                      *****************************

  NA   - Mulliken gross atomic population
  ZA   - Total nuclear charge
  QA   - Mulliken gross atomic charge
  VA   - Mayer's total valence
  BVA  - Mayer's bonded valence
  FA   - Mayer's free valence

  ATOM       NA         ZA         QA         VA         BVA        FA
  0 C      6.0662     6.0000    -0.0662     3.8988     3.8988     0.0000
  1 O      8.2949     8.0000    -0.2949     2.2191     2.2150     0.0040
  2 C      5.7750     6.0000     0.2250     3.9396     3.9348     0.0048
  3 C      5.8814     6.0000     0.1186     4.0304     4.0222     0.0082
  4 O      8.3560     8.0000    -0.3560     2.1562     2.1500     0.0063
  5 C      5.7706     6.0000     0.2294     3.7819     3.7778     0.0041
  6 C      6.2944     6.0000    -0.2944     3.6910     3.6871     0.0039
  7 C      5.9521     6.0000     0.0479     3.9121     3.9055     0.0065
  8 C      6.2864     6.0000    -0.2864     3.7151     3.7119     0.0032
  9 C      5.9085     6.0000     0.0915     3.8806     3.8801     0.0005
 10 C      6.2212     6.0000    -0.2212     3.8842     3.8837     0.0006
 11 C      6.1829     6.0000    -0.1829     4.0554     4.0552     0.0002
 12 C      5.8946     6.0000     0.1054     3.8531     3.8531     0.0001
 13 O      8.2940     8.0000    -0.2940     2.2223     2.2220     0.0003
 14 C      5.7403     6.0000     0.2597     4.2639     4.2627     0.0011
 15 O      8.1967     8.0000    -0.1967     2.3291     2.3282     0.0008
 16 C      5.8037     6.0000     0.1963     3.9919     3.9915     0.0004
 17 O      8.3766     8.0000    -0.3766     2.0762     2.0758     0.0004
 18 C      5.6988     6.0000     0.3012     4.0690     4.0687     0.0003
 19 O      8.3696     8.0000    -0.3696     2.0867     2.0829     0.0038
 20 C      5.9368     6.0000     0.0632     4.0435     4.0381     0.0054
 21 C      5.8893     6.0000     0.1107     4.0210     4.0209     0.0001
 22 O      8.3470     8.0000    -0.3470     2.1269     2.1267     0.0002
 23 C      5.7824     6.0000     0.2176     4.1846     4.1843     0.0003
 24 C      6.1833     6.0000    -0.1833     3.9142     3.9141     0.0000
 25 O      8.3105     8.0000    -0.3105     2.1956     2.1671     0.0285
 26 C      6.0090     6.0000    -0.0090     4.0010     3.4529     0.5482
 27 C      5.8439     6.0000     0.1561     3.9583     3.9547     0.0036
 28 O      8.4714     8.0000    -0.4714     1.9646     1.9633     0.0013
 29 C      5.9450     6.0000     0.0550     4.0547     4.0546     0.0001
 30 O      8.4543     8.0000    -0.4543     2.0063     2.0061     0.0002
 31 C      5.9861     6.0000     0.0139     3.8948     3.8913     0.0035
 32 C      5.9833     6.0000     0.0167     3.9316     3.9285     0.0031
 33 C      6.2828     6.0000    -0.2828     3.7687     3.7655     0.0032
 34 C      5.7454     6.0000     0.2546     3.8519     3.8484     0.0035
 35 O      8.3060     8.0000    -0.3060     2.1936     2.1918     0.0018
 36 C      5.7498     6.0000     0.2502     3.8856     3.8855     0.0001
 37 O      8.3077     8.0000    -0.3077     2.1908     2.1890     0.0018
 38 C      5.7459     6.0000     0.2541     3.8231     3.8201     0.0030
 39 C      6.3047     6.0000    -0.3047     3.7559     3.7524     0.0035
 40 O      8.3543     8.0000    -0.3543     2.1748     2.1720     0.0028
 41 C      6.0727     6.0000    -0.0727     3.8731     3.8731     0.0000
 42 H      0.9007     1.0000     0.0993     0.9547     0.9544     0.0003
 43 H      0.8865     1.0000     0.1135     0.9553     0.9553     0.0000
 44 H      0.9075     1.0000     0.0925     0.9542     0.9539     0.0004
 45 H      0.6715     1.0000     0.3285     0.8930     0.8930     0.0000
 46 H      0.9439     1.0000     0.0561     1.0148     1.0148     0.0000
 47 H      0.9482     1.0000     0.0518     0.9851     0.9851     0.0000
 48 H      0.9404     1.0000     0.0596     0.9597     0.9592     0.0005
 49 H      0.8942     1.0000     0.1058     0.9687     0.9684     0.0003
 50 H      0.9061     1.0000     0.0939     0.9683     0.9681     0.0001
 51 H      0.8771     1.0000     0.1229     1.0101     1.0100     0.0001
 52 H      0.9078     1.0000     0.0922     0.9541     0.9540     0.0001
 53 H      0.9335     1.0000     0.0665     0.9616     0.9613     0.0003
 54 H      0.9401     1.0000     0.0599     0.9893     0.9892     0.0001
 55 H      0.9128     1.0000     0.0872     0.9575     0.9569     0.0007
 56 H      0.8868     1.0000     0.1132     0.9689     0.9688     0.0000
 57 H      0.9280     1.0000     0.0720     0.9633     0.9631     0.0002
 58 H      0.9573     1.0000     0.0427     0.9721     0.9705     0.0016
 59 H      0.8917     1.0000     0.1083     0.9787     0.9787     0.0001
 60 H      0.8955     1.0000     0.1045     0.9659     0.9658     0.0001
 61 H      0.8993     1.0000     0.1007     0.9649     0.9648     0.0000
 62 H      0.9462     1.0000     0.0538     0.9809     0.9778     0.0031
 63 H      0.6866     1.0000     0.3134     0.8834     0.8824     0.0009
 64 H      0.9323     1.0000     0.0677     0.9793     0.9791     0.0002
 65 H      0.6770     1.0000     0.3230     0.8905     0.8902     0.0002
 66 H      0.9544     1.0000     0.0456     0.9727     0.9727     0.0000
 67 H      0.8956     1.0000     0.1044     0.9499     0.9496     0.0003
 68 H      0.9072     1.0000     0.0928     0.9493     0.9489     0.0005
 69 H      0.9337     1.0000     0.0663     1.0169     1.0169     0.0000
 70 H      0.8760     1.0000     0.1240     0.9635     0.9632     0.0002
 71 H      0.8877     1.0000     0.1123     0.9551     0.9551     0.0000
 72 H      0.8987     1.0000     0.1013     0.9547     0.9544     0.0002

  Mayer bond orders larger than 0.100000
B(  0-C ,  1-O ) :   0.9833 B(  0-C , 42-H ) :   0.9461 B(  0-C , 43-H ) :   0.9625 
B(  0-C , 44-H ) :   0.9460 B(  1-O ,  2-C ) :   1.1527 B(  2-C ,  3-C ) :   1.3916 
B(  2-C ,  8-C ) :   1.2630 B(  3-C ,  4-O ) :   1.2663 B(  3-C ,  5-C ) :   1.3207 
B(  4-O , 45-H ) :   0.8179 B(  5-C ,  6-C ) :   1.2561 B(  5-C , 40-O ) :   1.0701 
B(  6-C ,  7-C ) :   1.3339 B(  6-C , 46-H ) :   0.9577 B(  7-C ,  8-C ) :   1.3483 
B(  7-C ,  9-C ) :   0.9944 B(  8-C , 47-H ) :   0.9506 B(  9-C , 10-C ) :   1.0268 
B(  9-C , 32-C ) :   0.9968 B(  9-C , 48-H ) :   0.8580 B( 10-C , 11-C ) :   1.0300 
B( 10-C , 14-C ) :   0.9239 B( 10-C , 49-H ) :   0.8604 B( 11-C , 12-C ) :   1.0771 
B( 11-C , 16-C ) :   1.0139 B( 11-C , 50-H ) :   0.8748 B( 12-C , 13-O ) :   0.9293 
B( 12-C , 51-H ) :   0.8971 B( 12-C , 52-H ) :   0.9329 B( 13-O , 14-C ) :   1.1557 
B( 14-C , 15-O ) :   2.1374 B( 16-C , 17-O ) :   0.9739 B( 16-C , 31-C ) :   0.9977 
B( 16-C , 53-H ) :   0.8807 B( 17-O , 18-C ) :   1.0129 B( 18-C , 19-O ) :   1.0396 
B( 18-C , 29-C ) :   1.0028 B( 18-C , 54-H ) :   0.8823 B( 19-O , 20-C ) :   0.9096 
B( 20-C , 21-C ) :   1.0759 B( 20-C , 26-C ) :   1.0620 B( 20-C , 55-H ) :   0.8793 
B( 21-C , 22-O ) :   1.0014 B( 21-C , 56-H ) :   0.9245 B( 21-C , 57-H ) :   0.9071 
B( 22-O , 23-C ) :   1.0699 B( 23-C , 24-C ) :   1.1103 B( 23-C , 25-O ) :   0.9448 
B( 23-C , 58-H ) :   0.9039 B( 24-C , 59-H ) :   0.9427 B( 24-C , 60-H ) :   0.9455 
B( 24-C , 61-H ) :   0.9457 B( 25-O , 26-C ) :   1.1711 B( 26-C , 27-C ) :   1.0164 
B( 27-C , 28-O ) :   1.0142 B( 27-C , 29-C ) :   1.0512 B( 27-C , 62-H ) :   0.8607 
B( 28-O , 63-H ) :   0.8458 B( 29-C , 30-O ) :   1.0380 B( 29-C , 64-H ) :   0.8861 
B( 30-O , 65-H ) :   0.8268 B( 31-C , 32-C ) :   1.4902 B( 31-C , 39-C ) :   1.2548 
B( 32-C , 33-C ) :   1.2592 B( 33-C , 34-C ) :   1.3688 B( 33-C , 39-C ) :   0.1175 
B( 33-C , 66-H ) :   0.9928 B( 34-C , 35-O ) :   1.0736 B( 34-C , 38-C ) :   1.2725 
B( 35-O , 36-C ) :   0.9905 B( 36-C , 37-O ) :   0.9962 B( 36-C , 67-H ) :   0.9406 
B( 36-C , 68-H ) :   0.9306 B( 37-O , 38-C ) :   1.0670 B( 38-C , 39-C ) :   1.3568 
B( 39-C , 69-H ) :   0.9745 B( 40-O , 41-C ) :   0.9567 B( 41-C , 70-H ) :   0.9460 
B( 41-C , 71-H ) :   0.9625 B( 41-C , 72-H ) :   0.9506 

-------
TIMINGS
-------

Total SCF time: 0 days 0 hours 23 min 41 sec 

Total time                  ....    1421.867 sec
Sum of individual times     ....    1331.714 sec  ( 93.7%)

Fock matrix formation       ....    1226.254 sec  ( 86.2%)
  XC integration            ....     870.806 sec  ( 71.0% of F)
    Basis function eval.    ....       0.780 sec  (  0.1% of XC)
    Density eval.           ....       1.270 sec  (  0.1% of XC)
    XC-Functional eval.     ....       0.436 sec  (  0.1% of XC)
    XC-Potential eval.      ....       1.438 sec  (  0.2% of XC)
Diagonalization             ....       7.923 sec  (  0.6%)
Density matrix formation    ....      25.346 sec  (  1.8%)
Population analysis         ....       8.940 sec  (  0.6%)
Initial guess               ....       0.774 sec  (  0.1%)
Orbital Transformation      ....       0.000 sec  (  0.0%)
Orbital Orthonormalization  ....       0.700 sec  (  0.0%)
DIIS solution               ....      26.519 sec  (  1.9%)
Grid generation             ....      35.957 sec  (  2.5%)


-------------------------------------------------------------------------------
                          DFT DISPERSION CORRECTION                            
                                                                               
                              DFTD3 V3.1  Rev 1                                
                          USING Becke-Johnson damping                          
-------------------------------------------------------------------------------
The B3LYP functional is recognized
Active option DFTDOPT                   ...         4   

molecular C6(AA) [au] = 52628.999989 


            DFT-D V3
 parameters
 s6 scaling factor         :     1.0000 
 a1 scaling factor         :     0.3981 
 s8 scaling factor         :     1.9889 
 a2 scaling factor         :     4.4211 
 ad hoc parameters k1-k3   :    16.0000     1.3333    -4.0000 

 Edisp/kcal,au: -105.188670906324  -0.167628799299 
 E6   /kcal   : -50.757318923 
 E8   /kcal   : -54.431351983 
 % E8         :  51.746401503 

-------------------------   ----------------
Dispersion correction           -0.167628799
-------------------------   ----------------


-------------------------   --------------------
FINAL SINGLE POINT ENERGY     -2098.925209947534
-------------------------   --------------------

                                *** OPTIMIZATION RUN DONE ***

                            ***************************************
                            *     ORCA property calculations      *
                            ***************************************

                                    ---------------------
                                    Active property flags
                                    ---------------------
   (+) Dipole Moment


------------------------------------------------------------------------------
                       ORCA ELECTRIC PROPERTIES CALCULATION
------------------------------------------------------------------------------

Dipole Moment Calculation                       ... on
Quadrupole Moment Calculation                   ... off
Polarizability Calculation                      ... off
GBWName                                         ... orca.gbw
Electron density file                           ... orca.scfp
The origin for moment calculation is the CENTER OF MASS  = ( 0.503211, -0.147276 -0.109195)

-------------
DIPOLE MOMENT
-------------
                                X             Y             Z
Electronic contribution:     14.22327      -8.35913      -3.44999
Nuclear contribution   :    -16.30925       7.75156       2.75059
                        -----------------------------------------
Total Dipole Moment    :     -2.08599      -0.60757      -0.69940
                        -----------------------------------------
Magnitude (a.u.)       :      2.28247
Magnitude (Debye)      :      5.80157



--------------------
Rotational spectrum 
--------------------
 
Rotational constants in cm-1:     0.003907     0.001563     0.001238 
Rotational constants in MHz :   117.120079    46.845237    37.128882 

 Dipole components along the rotational axes: 
x,y,z [a.u.] :    -2.039905    -0.981837     0.290574 
x,y,z [Debye]:    -5.185027    -2.495631     0.738579 

 

Timings for individual modules:

Sum of individual times         ...     4774.577 sec (=  79.576 min)
GTO integral calculation        ...       75.752 sec (=   1.263 min)   1.6 %
SCF iterations                  ...     4591.279 sec (=  76.521 min)  96.2 %
SCF Gradient evaluation         ...       61.098 sec (=   1.018 min)   1.3 %
Geometry relaxation             ...       46.448 sec (=   0.774 min)   1.0 %
                             ****ORCA TERMINATED NORMALLY****
TOTAL RUN TIME: 0 days 1 hours 21 minutes 44 seconds 910 msec
