8
Lattice="4.840334962254463 -8.354482189440469e-51 -2.284779263483958e-48 -8.520485081353344e-51 4.953455884862995 -8.458729200093476e-15 4.893678482255546e-47 -2.4767279424314905 4.289818632816884" Properties=species:S:1:pos:R:3:minim_forces:R:3:REF_forces:R:3 config_type=buildcell_minim_mid buildcell_config_i=58 RSS_min_vol_per_atom=7.0 buildcell_type=wide gap_rss_group=ALL gap_rss_iter=1 buildcell_symmetry="143 P3 P 3 @ 0.01" minim_pressure_GPa=0.3311802116344573 minim_config_type=minim_mid minim_energy=-42.95987396909129 minim_stress="0.09009275137890659 0.745161886034599 0.7451618860345985 3.529256860145908e-16 5.649231261999455e-48 -3.85609112442381e-48" E_per_atom_dist_to_nearby=0.4200428604869275 vasp_rundir=run_iter_1/run_VASP_0t5_ducs REF_energy=-11.82876237 REF_stress="1.2631575400903516 1.2354803210594947 1.2354992655626198 1.4800315827951445e-05 -1.922322395680785e-07 2.126544574279685e-07" pbc="T T T"
Li       2.66194464      -0.00000025       2.85987923       5.48417262       0.00000000      -0.00000000      -1.25373902      -0.00004882       0.00001424
Li      -0.60938920       4.95345564       0.00000014      -7.39607884       0.00000000       0.00000000      -0.60567028      -0.00004831       0.00000623
Cu      -0.40976464       1.32971594       2.16384366      -0.10267386       1.11256090       1.57579460      -1.13583968      -1.44988430      -0.09582083
Cu      -0.40976464      -0.06207386       4.35946501      -0.10267386      -1.92095860       0.17560870      -1.13583755       0.80816481      -1.20752779
Cu      -0.40976464      -1.26764283       2.05632901      -0.10267386       0.80839770      -1.75140330      -1.13581401       0.64177865       1.30337569
Cu       1.55843574       3.69006808       1.02595784       0.73997593      -2.62262323       2.80964026       1.75561647       2.85622857      -2.46881117
Cu       1.55843574       2.21991604       2.68271420       0.73997593      -1.12190822      -3.67607847       1.75564392       0.70991255       3.70769268
Cu       1.55843574       1.52019897       0.58114701       0.73997593       3.74453145       0.86643821       1.75564015      -3.56610314      -1.23892906
8
Lattice="4.840129909600575 1.4875240977830346e-50 -4.974030278968147e-48 1.5234807034368268e-50 4.949079058761429 -9.648991248378782e-15 5.303894512612058e-48 -2.4745395293807064 4.286028190224981" Properties=species:S:1:pos:R:3:minim_forces:R:3:REF_forces:R:3 config_type=buildcell_minim_mid buildcell_config_i=58 RSS_min_vol_per_atom=7.0 buildcell_type=wide gap_rss_group=ALL gap_rss_iter=1 buildcell_symmetry="143 P3 P 3 @ 0.01" minim_pressure_GPa=0.3311802116344573 minim_config_type=minim_mid minim_energy=-43.60126527699674 minim_stress="0.07176937420796883 0.7574871663957403 0.7574871663957395 -2.834921813905794e-17 6.460992291116112e-49 -4.221586990849055e-49" E_per_atom_dist_to_nearby=0.33986894699874615 vasp_rundir=run_iter_1/run_VASP_wb5xtjne REF_energy=-11.41788931 REF_stress="1.2575530410211313 1.2453880156069745 1.24540563473812 1.4789511775654543e-05 1.5435252068309296e-08 2.136593403972357e-07" pbc="T T T"
Li       2.74185849      -0.00000025       2.85735227       5.45989199      -0.00000000       0.00000000      -1.88491629      -0.00001613      -0.00003284
Li      -0.59558141       4.94907881       0.00000014      -7.90625560      -0.00000000       0.00000000      -0.59580239       0.00001036       0.00002940
Cu      -0.43457778       1.32131297       2.17221118       1.14041100       1.52966014       1.23739497      -0.95233443      -1.16248905      -0.24711030
Cu      -0.43457778      -0.06730727       4.34421362       1.14041100      -1.83644555       0.70602706      -0.95230017       0.79541816      -0.88324537
Cu      -0.43457778      -1.25400644       2.05563200       1.14041100       0.30678541      -1.94342203      -0.95235823       0.36728309       1.13030893
Cu       1.55193068       3.67495727       1.03799463      -0.32495646      -2.15056904       3.33326881       1.77920636       3.19781037      -2.49356240
Cu       1.55193068       2.21267046       2.66360946      -0.32495646      -1.81141094      -3.52908182       1.77925198       0.56056599       4.01602972
Cu       1.55193068       1.53599012       0.58442452      -0.32495646       3.96197998       0.19581302       1.77925317      -3.75858279      -1.52241714
8
Lattice="4.840223990163679 1.613859924603201e-50 -5.15708630959144e-47 1.6534067588002971e-50 4.946746550833068 -9.516092436421836e-15 -7.55484715556609e-48 -2.473373275416526 4.284008179104492" Properties=species:S:1:pos:R:3:minim_forces:R:3:REF_forces:R:3 config_type=buildcell_minim_mid buildcell_config_i=58 RSS_min_vol_per_atom=7.0 buildcell_type=wide gap_rss_group=ALL gap_rss_iter=1 buildcell_symmetry="143 P3 P 3 @ 0.01" minim_pressure_GPa=0.3311802116344573 minim_config_type=minim_mid minim_energy=-44.11525574941707 minim_stress="0.03184707832919567 0.7460084568567295 0.7460084568567292 -3.2413649628601827e-16 -6.49282038175355e-30 -1.1055307035740323e-44" E_per_atom_dist_to_nearby=0.35916300889575226 vasp_rundir=run_iter_1/run_VASP_ixceukjl REF_energy=-11.16999887 REF_stress="1.2549371055396192 1.2504560937917288 1.2504738787035983 1.5454875373001074e-05 -4.7822442922517524e-08 9.652493863178459e-08" pbc="T T T"
Li       2.78192587      -0.00000025       2.85600559       5.65220689      -0.00000000       0.00000000      -2.18336069       0.00000691      -0.00004131
Li      -0.61063067       4.94674630       0.00000014      -7.79981035      -0.00000000       0.00000000      -0.57123720       0.00003094       0.00001449
Cu      -0.44186457       1.32304659       2.17376775       1.35470729       1.56052298       1.19431486      -0.88980355      -1.12026877      -0.26717319
Cu      -0.44186457      -0.07068836       4.34291669       1.35470729      -1.81456850       0.75429511      -0.88977707       0.79167026      -0.83663783
Cu      -0.44186457      -1.25235897       2.05133234       1.35470729       0.25404552      -1.94860997      -0.88983082       0.32882271       1.10375426
Cu       1.55091373       3.66949008       1.04559609      -0.63883947      -1.92401421       3.49129717       1.80797898       3.36830577      -2.50119304
Cu       1.55091373       2.20648849       2.65507400      -0.63883947      -2.06154493      -3.41189377       1.80801902       0.48196187       4.16755100
Cu       1.55091373       1.54414052       0.58333850      -0.63883947       3.98555915      -0.07940340       1.80801135      -3.85052970      -1.66627438
8
Lattice="4.768672877517847 -3.925186787527295e-18 9.803136955442033e-46 -2.384336438758924 4.129791854268295 -5.882521364917406e-46 -1.4381929361845267e-46 4.797930335963443e-46 6.9288106947117525" Properties=species:S:1:pos:R:3:minim_forces:R:3:REF_forces:R:3 config_type=buildcell_minim_mid buildcell_config_i=64 RSS_min_vol_per_atom=9.0 buildcell_type=narrow gap_rss_group=ALL gap_rss_iter=1 buildcell_symmetry="189 P-62m P -6 -2 @ 0.01" minim_pressure_GPa=0.03250513899444483 minim_config_type=minim_mid minim_energy=-13.566793165939028 minim_stress="0.2759184714331474 0.2759184714331473 0.39969967332697853 -6.248866295402194e-31 -6.366678772553721e-32 3.573590055157126e-18" E_per_atom_dist_to_nearby=0.48493109362595543 vasp_rundir=run_iter_1/run_VASP_0r5zruh1 REF_energy=-13.34429023 REF_stress="0.29852918906105164 0.2985330295302734 0.36058216792074665 -7.972279606490686e-08 -3.593236803770992e-08 3.34024347286244e-06" pbc="T T T"
Li       0.51613288       4.12979434       0.40729212       0.42696809      -0.00000000       0.00000000       0.07900593      -0.00000412      -0.00089870
Li       0.93410178       1.61791422       0.40729212      -0.21348405      -0.36976522      -0.00000000      -0.03948940      -0.06841334      -0.00089675
Li      -1.45023466       2.51188260       0.40729212      -0.21348405       0.36976522       0.00000000      -0.03949379       0.06841124      -0.00089757
Li       1.87808384       0.00000248       3.87169747      -0.35320972       0.00000000      -0.00000000      -0.20542634       0.00000436      -0.00089563
Li       1.44529452       2.50332602       3.87169747       0.17660486       0.30588859       0.00000000       0.10272729       0.17791342      -0.00089854
Li       3.82963096       1.62647079       3.87169747       0.17660486      -0.30588859       0.00000000       0.10273075      -0.17790934      -0.00089838
Cu      -0.00000000       0.00000248       2.10309988      -0.00000000       0.00000000       0.94693389      -0.00009715      -0.00000549      -0.00469036
Cu       0.00000000       0.00000248       5.64029506      -0.00000000      -0.00000000      -0.94693389       0.00004272       0.00000326       0.01007593
20
Lattice="5.3670796455709775 0.0007978859652286587 -0.00047511458202149367 0.03015404374773003 7.951478485072527 -0.00359282614398251 1.265149107619597 1.9111061458075953 8.650287691560465" Properties=species:S:1:pos:R:3:minim_forces:R:3:REF_forces:R:3 config_type=buildcell_minim_mid buildcell_config_i=67 RSS_min_vol_per_atom=9.0 buildcell_type=narrow gap_rss_group=ALL gap_rss_iter=1 buildcell_symmetry="1 P1 P 1 @ 0.01" minim_pressure_GPa=0.29032309100837494 minim_config_type=minim_mid minim_energy=-30.114911062706305 minim_stress="0.38451636199956113 0.29497585668374376 0.27964569059469857 0.0440292991833306 0.008736517092922868 -0.014403862595548874" E_per_atom_dist_to_nearby=0.2384364867127482 vasp_rundir=run_iter_1/run_VASP_6q9qu79x REF_energy=-34.37750712 REF_stress="0.2983858852785477 0.29555506693360434 0.2948675268361524 0.0013504842299593741 -0.0031725950210544983 0.0007905053622412714" pbc="T T T"
Li       6.79496758       6.14057351       8.26741098      -0.09456552       1.66826706      -0.76651416      -0.08350045       0.09496116      -0.12469882
Li       4.69893391       3.87110794       2.16032890      -1.49605722       1.13218974      -0.63937269       0.08669619       0.02565396       0.28615667
Li       2.67650186       8.49609348       8.23240205      -0.98765052      -0.37089151      -0.61336509      -0.08798304       0.24429630       0.27139513
Li       3.93904138       5.24444423       8.69296458      -0.53331351       0.70280814      -1.78851332       0.19000545       0.35243733       0.15330079
Li       2.40440293       5.41207232       5.25921705       2.61712298       3.12924166       0.29347229      -0.03915105       0.02614894       0.35493195
Li       1.02251944       1.40239484       4.01511114       0.26020548      -1.07973744       0.69148235      -0.30416119       0.28279070       0.07378015
Li       3.82703847       1.52976251       3.17462086      -0.27511384       0.37373141      -0.46806654       0.03741040      -0.12667377      -0.03533045
Li       2.20658736       3.68742327       3.18510993      -0.86042778       0.84832590       1.06881922      -0.26355774       0.00150823      -0.17922896
Li       5.30577496       8.34120236       7.61439994       0.34051622      -0.50274448      -1.01436359      -0.12507302       0.22098791      -0.39968022
Li       3.62114849       8.44750833       0.70602614      -0.43613864      -1.63902002       1.14254566      -0.25190587       0.11797956       0.02496503
Li       2.41935214       7.18790251       3.18724186      -0.15069693      -1.31602578       0.32590729      -0.12522656       0.02419069       0.12750189
Li       6.06978320       3.70709463       7.28219537      -0.33832237      -0.52953854      -3.28052441      -0.02763820      -0.32314611      -0.29905974
Li       5.97336004       1.73623496       1.10577005      -0.81166523      -0.31688373       0.90235430       0.39654471      -0.31602670       0.35608158
Li       3.10054033       9.47314199       5.75657544       1.08814345       0.99682317      -0.03749622      -0.01960591       0.03237937       0.04526284
Li       4.48798931       3.69837308       5.16384503       0.42615454      -1.16815281       1.58206854       0.28340255       0.10026787      -0.15132248
Cu       3.14984431       3.12599250       7.66774440      -1.13855544       0.89437563       0.60760335       0.23455886       0.09293661      -0.41558848
Cu       1.36973795       7.61438005       5.72510321      -2.10487481      -0.14611087      -1.52070562       1.33029653      -0.23112533       0.67129804
Cu       1.21540282       5.49678039       1.83634100       1.87455193      -1.15445536       1.07054023      -0.02900059       0.08929502      -0.30047856
Cu       4.66274703       7.69088732       4.85222855       2.51354195      -1.53624966      -0.89721189      -1.29969724      -0.43471484      -0.47405048
Cu       3.90990349       6.10231228       1.47778255       0.10714526       0.01404749       3.34134031       0.09758615      -0.27414689       0.01476411
20
Lattice="3.3380843302433485 0.00013337752613747344 0.00020717636370227532 -0.36811709757572014 9.188416210932353 0.0032205188790367036 -0.2110800417376259 -0.16969088660218357 11.64818889562585" Properties=species:S:1:pos:R:3:minim_forces:R:3:REF_forces:R:3 config_type=buildcell_minim_mid buildcell_config_i=68 RSS_min_vol_per_atom=9.0 buildcell_type=narrow gap_rss_group=ALL gap_rss_iter=1 buildcell_symmetry="1 P1 P 1 @ 0.01" minim_pressure_GPa=0.2726303471616673 minim_config_type=minim_mid minim_energy=-30.8212787799634 minim_stress="-0.05334384527087579 0.23115865739849664 0.18755239325692216 -0.05982963250041236 -0.013927190146297235 0.0016595133506232406" E_per_atom_dist_to_nearby=0.3513373805322786 vasp_rundir=run_iter_1/run_VASP_hnfquiz2 REF_energy=-34.6198771 REF_stress="0.31022360476825656 0.2957487540689497 0.30849182199600855 0.003306133144893285 -0.00012101190810236046 -0.0023816039383315413" pbc="T T T"
Li       2.06272979       7.77685912       3.77394919       1.36227069       1.36065806       1.20390971      -0.39035638       0.26443432       0.30662159
Li       0.31149706       0.90581981       2.67168894       1.35779227      -0.38438455       0.39907082       0.27205158      -0.04673131       0.06895503
Li       1.35280456       1.36986476       6.99871450      -1.67383735       0.91881600      -1.42020010       0.27375367       0.17402107      -0.15278133
Li       2.63149360       8.58710810       8.70754716       4.05029249      -1.77648035      -1.14146671      -0.04688153      -0.07362112       0.07275626
Li      -0.07047833       7.48484971      -0.62500969      -2.27376804       0.85104791      -0.51921537       0.17891854      -0.26569059      -0.50155337
Li       1.38690691       2.90932145      10.38082775       2.98806381       1.31889221       3.08895143       0.01909643       0.13611005      -0.09259546
Li       1.89040033       5.30843873       0.17960659       0.32618464      -0.42339902       0.18946598      -0.15747538      -0.13228401      -0.35543871
Li       0.29285573       3.93217372       5.62047484      -0.79613912      -0.15647095      -3.26085149       0.08870644      -0.11483990       0.63515995
Li       1.89480101       5.03171059       3.66430957       0.85213698      -1.73298014      -0.25917758      -0.17969939      -0.08473790      -0.11173776
Li       1.96932496       2.38565680       4.19655078      -0.14056277      -1.82588600       2.36011628      -0.13584327      -0.37451460      -0.04968013
Li       0.16075808       3.51211070       1.83345915      -1.07975738      -0.44083291      -0.72965680       0.06244591       0.00288038      -0.05036797
Li       3.24037770       1.41766584       0.04185040      -1.32151014      -0.56349642      -0.77148939       0.02438544      -0.22593494      -0.40015593
Li       0.21358062       6.36628923       2.01373505      -0.72657601      -0.71099261       0.08868936      -0.00694384       0.18468652       0.06616714
Li       1.96638244      -0.63923339       1.22854738      -0.73443664       0.33719441       1.06947622      -0.12804269      -0.04577075      -0.04879626
Li      -0.70721672       6.38186416       5.99602904      -0.64507712      -2.45262058      -2.91359658       0.10067596       0.06893716       0.45412354
Cu      -0.14024957       4.76186626       9.65403222       2.84336810       1.78886845      -1.69749608      -0.95546357      -0.70971200       0.42177793
Cu      -0.30711457       1.92345550       8.80088783      -1.20203472       2.15374532       1.54676166       0.06162014       0.54540028       0.34316602
Cu       1.08159476       6.21403593       8.41390583      -4.05279634       2.88384273       0.49884508       0.84933267       0.47717603      -0.12997565
Cu       0.02836521       0.45613298       5.11470605       1.05987552      -0.90789909       1.00977336       0.03484674      -0.08070933       0.34759209
Cu       0.96513994       8.03670774       6.91751173      -0.19348888      -0.23762247       1.25809021       0.03487253       0.30090067      -0.82323700
20
Lattice="3.342591847071548 -0.002891928074613563 0.0021608598913283013 -0.37695716669469187 9.1116013450843 0.029346786100352084 -0.20437988680247504 -0.13465227593525156 11.587908597665466" Properties=species:S:1:pos:R:3:minim_forces:R:3:REF_forces:R:3 config_type=buildcell_minim_mid buildcell_config_i=68 RSS_min_vol_per_atom=9.0 buildcell_type=narrow gap_rss_group=ALL gap_rss_iter=1 buildcell_symmetry="1 P1 P 1 @ 0.01" minim_pressure_GPa=0.2726303471616673 minim_config_type=minim_mid minim_energy=-35.35323268436804 minim_stress="-0.044859802834648466 0.2300019199024292 0.15469382518771246 -0.06815571483790916 -0.0235298118025605 0.020544323642972942" E_per_atom_dist_to_nearby=0.23107690256662972 vasp_rundir=run_iter_1/run_VASP_fe4qtha_ REF_energy=-34.22082156 REF_stress="0.31474484879713455 0.2958345055074717 0.30605463663872234 0.0034138653997265967 0.0008314215378669443 -0.002803855175315763" pbc="T T T"
Li       2.11959525       7.75240474       3.82879130       1.46068306       0.80018491       1.09181927      -0.46319280       0.11168601       0.12298961
Li       0.35535918       0.90694869       2.65458212       1.16134127       0.01715738       0.09357819       0.20460853       0.00999432       0.14374989
Li       1.38000943       1.37973221       6.91964310      -0.75604110       1.25389540      -1.52415677       0.26812160       0.26775143       0.06428873
Li       2.66498526       8.53058329       8.61032985       2.78807926      -1.94748696      -0.68521827      -0.13104404      -0.00508207       0.26929270
Li      -0.17163739       7.45560536      -0.55597116      -1.73094396       0.59600379       0.20578664       0.20162493      -0.22064202      -0.55515351
Li       1.48199541       2.97990035      10.40595867       3.34662773       1.00533115       2.71663104      -0.24657817       0.05180099      -0.20819009
Li       1.90505790       5.25772619       0.17267741       0.61273028      -0.05863911       0.03660763      -0.22264641      -0.06151908      -0.29453627
Li       0.29855223       3.87717525       5.51357639      -0.41789053       0.00923465      -2.62796821       0.06725972      -0.02974048       0.73121297
Li       1.93574126       4.93253056       3.65248843       1.12828672      -1.65684451      -0.13623602      -0.25899014      -0.00242866      -0.19201819
Li       1.94150619       2.31056728       4.26963693      -0.89266278      -2.01314307       2.09426057      -0.03459151      -0.43671531      -0.21197765
Li       0.09983558       3.45682685       1.82895428      -1.47388017      -0.76433026       0.13532284       0.10276786       0.01714244      -0.01132492
Li       3.21400647       1.42596100       0.05992306      -1.06456410      -0.42597671      -0.40801242       0.08777741      -0.27785355      -0.43439108
Li       0.20219618       6.28301454       2.03548197      -0.40787432      -0.70659361      -0.03998957       0.07818137       0.23277205       0.09517954
Li       1.92448419      -0.61579673       1.26103704      -1.14990444       0.40054371       1.00646672      -0.09367410      -0.08502692      -0.03110378
Li      -0.73511403       6.32693347       5.93981381       0.31347679      -1.93320646      -2.92554657       0.08920743       0.04400552       0.56983220
Cu      -0.08201895       4.79414903       9.55723127       1.66465706       1.38138385      -1.76449665      -1.28970069      -1.15214187       0.73849456
Cu      -0.33139680       1.97790936       8.76986980      -1.41059967       1.96252894       1.04816577       0.23971508       0.60056857       0.31543177
Cu       1.03549833       6.22309482       8.37310281      -2.97283621       2.69978063       0.17738556       1.29004690       0.39429263      -0.05360914
Cu       0.07040405       0.42184354       5.12236829       0.70494660      -0.73620673       0.56311370       0.01986907      -0.00022189       0.29261535
Cu       0.92185770       7.99511991       6.92734484      -0.90363150       0.11638301       0.94248656       0.09123795       0.54135790      -1.35078268
20
Lattice="3.3445786505760156 -0.0066450995955914 0.002811836516868557 -0.38752612039249096 9.010948656099295 0.06702187521212227 -0.20203494886296386 -0.0846596404258327 11.514560048669017" Properties=species:S:1:pos:R:3:minim_forces:R:3:REF_forces:R:3 config_type=buildcell_minim_mid buildcell_config_i=68 RSS_min_vol_per_atom=9.0 buildcell_type=narrow gap_rss_group=ALL gap_rss_iter=1 buildcell_symmetry="1 P1 P 1 @ 0.01" minim_pressure_GPa=0.2726303471616673 minim_config_type=minim_mid minim_energy=-39.373740974866166 minim_stress="-0.009411203594155617 0.22603523022204672 0.16990866830497317 -0.1051789262518501 -0.030293784572172657 0.03566648776523123" E_per_atom_dist_to_nearby=0.13428310210069871 vasp_rundir=run_iter_1/run_VASP_pvnpc0k7 REF_energy=-33.79189437 REF_stress="0.3172400372102596 0.2934472180696547 0.30521050414893186 0.0058062705941589535 0.0011080365466284053 -0.004440468870683949" pbc="T T T"
Li       2.19891898       7.69985054       3.92038723       1.49378729      -0.21148215       1.27869541      -0.58347731      -0.07322311      -0.15952089
Li       0.41040242       0.91775673       2.62848665       1.21807814       0.20485553       0.40944537       0.08623197       0.04720388       0.26296965
Li       1.41530746       1.44643437       6.79830122      -1.04765184       0.99669627      -0.69370071       0.27843808       0.30084166       0.36658322
Li       2.64936870       8.45212696       8.53676290       1.08577951      -2.20894709       1.37922110      -0.25163514       0.02314578       0.40381796
Li      -0.25236967       7.39125446      -0.45703298      -1.24924942       0.86399237      -0.51133691       0.23203564      -0.11424742      -0.64695215
Li       1.54143667       3.09183627      10.35873687       2.47200489       1.16144457       1.11684352      -0.43035273      -0.15646018      -0.27709857
Li       1.93717670       5.21274652       0.14087034       0.65758523       0.63389846      -0.59862548      -0.36001852      -0.01150799      -0.13896601
Li       0.32447671       3.82400971       5.42325893      -0.74869466      -0.03887891      -1.30303276       0.01072802       0.09424023       0.79205477
Li       1.99507298       4.82757056       3.64698963       0.99240894      -1.06799844       0.02435389      -0.37737722       0.09578385      -0.22091623
Li       1.91326580       2.24481534       4.32800171      -1.04129205      -2.07115633       1.16389688       0.13976164      -0.54967454      -0.38654966
Li       0.02029561       3.40943380       1.82905064      -1.33110672      -0.51978812       0.24315328       0.15317995       0.00698114      -0.03991489
Li       3.19891300       1.42835301       0.04206407      -1.04174035       0.06483617      -0.37681368       0.10314864      -0.30250261      -0.42979121
Li       0.19091812       6.18075509       2.05957906      -0.32185619      -0.64970086      -0.05084525       0.17556107       0.25737875       0.11993527
Li       1.85645484      -0.61533384       1.29825048      -1.07675913      -0.08775399       0.09223616       0.05787041      -0.07231835      -0.01443645
Li      -0.72009067       6.26698529       5.93738243       0.13449023      -2.16284290      -2.71217069      -0.02283446      -0.04346970       0.64867439
Cu      -0.07945516       4.82244486       9.48707776       2.29713912       0.06937844      -0.81001418      -1.50078474      -1.51076453       1.03166389
Cu      -0.36349217       1.99471289       8.70639771      -0.94932244       2.86202214       1.16004172       0.39566064       0.57894194       0.26878683
Cu       0.98020523       6.21384827       8.34216729      -0.68771696       2.43430434      -1.95859973       1.60932115       0.75847852      -0.36585571
Cu       0.11678078       0.33311975       5.17990806       0.91451689      -1.80530462       2.44637461      -0.04850463       0.23314022       0.22874071
Cu       0.83331192       7.97432561       6.89409137      -1.77040050       1.53242511      -0.29912254       0.33304753       0.43803248      -1.44322491
20
Lattice="3.3426128509258124 -0.008855062146153466 0.0028862385480058115 -0.39340324644664093 8.962730965163693 0.0890472484853476 -0.20153491084371936 -0.055676031483950804 11.47507925053497" Properties=species:S:1:pos:R:3:minim_forces:R:3:REF_forces:R:3 config_type=buildcell_minim_mid buildcell_config_i=68 RSS_min_vol_per_atom=9.0 buildcell_type=narrow gap_rss_group=ALL gap_rss_iter=1 buildcell_symmetry="1 P1 P 1 @ 0.01" minim_pressure_GPa=0.2726303471616673 minim_config_type=minim_mid minim_energy=-41.20737217877453 minim_stress="0.0047459827732565865 0.2141564708636675 0.17568239183728043 -0.11311526438115797 -0.04012077138539887 0.039463741844075036" E_per_atom_dist_to_nearby=0.0985061444152393 vasp_rundir=run_iter_1/run_VASP_8yd8fiv7 REF_energy=-33.53973645 REF_stress="0.3168421992117987 0.29105651915402114 0.30063139940183053 0.00841133809159625 0.0005965972462653477 -0.004669778395757752" pbc="T T T"
Li       2.21555550       7.68275664       3.95741598       1.10700295      -0.37304813       1.28668184      -0.65321127      -0.13380212      -0.28659473
Li       0.43461103       0.93371385       2.62840852       1.08761905       0.56002827       0.66084361       0.02988391       0.04252739       0.26140349
Li       1.42486690       1.49272363       6.73590303      -1.07099300       1.06002939      -0.24990587       0.31419962       0.27562714       0.56479391
Li       2.64643421       8.41213507       8.49993231       0.30609754      -1.30712719       1.13254121      -0.34476920       0.07809646       0.48540606
Li      -0.29412654       7.37007017      -0.40772521      -1.12565412       0.95524330      -0.80602235       0.24970030      -0.06844592      -0.69434997
Li       1.55840450       3.12621755      10.32844313       2.64326500       0.57585370       0.82843201      -0.52528460      -0.19401298      -0.27766659
Li       1.95107813       5.19290258       0.11859306       0.82700785       0.70540728      -0.83404994      -0.43633481       0.00621997      -0.04313845
Li       0.33473946       3.80759464       5.38517035      -0.89615789      -0.29041174      -0.58805738      -0.01348185       0.14640585       0.81165093
Li       2.02155952       4.76939667       3.64392164       0.76841080      -0.98612929       0.05072308      -0.43856656       0.16516603      -0.22407093
Li       1.90175699       2.20924154       4.33860574      -0.94628971      -2.12468578       0.97904352       0.23884851      -0.57976888      -0.43628848
Li      -0.01996510       3.39325641       1.82892890      -1.16875119      -0.31937127       0.06805058       0.17974096      -0.02018604      -0.08158126
Li       3.19281343       1.41994799       0.02945573      -1.01630124       0.29151375      -0.16239258       0.11448573      -0.30319068      -0.39790009
Li       0.18086332       6.13826499       2.07356542      -0.28245788      -0.52517635       0.04727125       0.22254892       0.26091078       0.12908582
Li       1.82402161      -0.61452798       1.30653190      -0.94850969      -0.31277489      -0.69602985       0.11535540      -0.04822600       0.01728991
Li      -0.71070260       6.25799405       5.93426233      -0.35501629      -2.10994225      -2.72639532      -0.09139532      -0.15558916       0.64039535
Cu      -0.09062733       4.85250461       9.46834497       2.72252758      -0.69152656      -0.22092095      -1.65910011      -1.74614684       1.21295347
Cu      -0.38660233       2.01347177       8.68828199      -0.90218377       3.09104446       0.99085651       0.43886300       0.53459219       0.19574391
Cu       0.96594677       6.20922143       8.33094495      -0.23887229       1.93737468      -2.20499657       1.90646597       0.89328127      -0.51255345
Cu       0.16972426       0.27997022       5.22044204       0.82359141      -2.33325830       2.87116020      -0.60700920       0.91497669      -0.57850609
Cu       0.78100470       7.94239667       6.87298682      -1.33433511       2.19695691      -0.42683301       0.95906060      -0.06843517      -0.78607281
20
Lattice="3.3349689541883354 -0.014011263981312708 0.0036321779673115094 -0.4067780397987642 8.882620034940082 0.12224327673002616 -0.19817383210520634 -0.011643740382690946 11.400356157159141" Properties=species:S:1:pos:R:3:minim_forces:R:3:REF_forces:R:3 config_type=buildcell_minim_last_unconverged buildcell_config_i=68 RSS_min_vol_per_atom=9.0 buildcell_type=narrow gap_rss_group=ALL gap_rss_iter=1 buildcell_symmetry="1 P1 P 1 @ 0.01" minim_pressure_GPa=0.2726303471616673 minim_config_type=minim_last_unconverged minim_energy=-43.61560478736668 minim_stress="0.02360735553217484 0.2102331077166089 0.20693652946458296 -0.11710772363153663 -0.04894066600806286 0.05142855797441449" minim_n_steps=20 E_per_atom_dist_to_nearby=0.0 vasp_rundir=run_iter_1/run_VASP_xkeavo14 REF_energy=-32.92962756 REF_stress="0.31683665569063835 0.28985588294136716 0.295622308065825 0.011396005342334353 -0.00029845745705690927 -0.004568054997797656" pbc="T T T"