24
Lattice="4.324727612486859 7.547841214942326e-15 0.0014470306661545937 2.162363806243438 4.369806212098235 0.000723515333084728 1.9281190809615152 -4.594044670803201e-14 19.01050308649087" Properties=species:S:1:pos:R:3:optimize_forces:R:3:REF_forces:R:3 config_type=buildcell_optimize_mid buildcell_config_i=1 RSS_min_vol_per_atom=8.0 buildcell_type=narrow gap_rss_group=ALL gap_rss_iter=1 buildcell_symmetry="12 C2/m -C 2y @ 0.01" optimize_pressure_GPa=0.03651276067310389 optimize_config_type=optimize_mid optimize_energy=-46.79967793564391 optimize_stress="0.41595411383079745 0.3142585844696808 0.7491067352356219 -4.985457971945173e-16 0.0815913530860166 -1.904915373284508e-15" optimize_virial="_JSON [[-149.43255853845608, -1.7915446903771226e-11, -29.311898213892384], [-1.787814341014382e-11, -112.8981845797565, -6.777911565336581e-12], [-29.31189821389257, -6.764588889041079e-12, -269.11847327031074]]" E_per_atom_dist_to_nearby=0.9465161358437095 _ConfigSet_loc=" / 0 / 0" vasp_rundir=run_iter_1/run_VASP_xb0xbpr7 REF_energy=-40.40279943 REF_stress="0.7223699013983267 0.6777032987835245 0.7350144726191227 0.0008301964419726978 -0.02199503047448288 0.007916995607928922" pbc="T T T"
Li       4.55004495       2.99218773       5.15751829      -1.26472439      -0.77192989      -5.89808464       0.08744574       0.61251784       0.23833455
Li       6.02752936       2.99218773      13.85587885       1.26472439      -0.77192989       5.89808464      -0.04423890       0.62984876      -0.28053939
Li       3.86516555       1.37761849      13.85515534       1.26472439       0.77192989       5.89808464      -0.08744995      -0.61250930      -0.23837126
Li       2.38768115       1.37761849       5.15679478      -1.26472439       0.77192989      -5.89808464       0.04423652      -0.62985740       0.28050197
Li       6.21011731       3.05089533      10.36187186      -0.07308181      -0.02706398      -5.69754181       0.28250780       0.49145395       0.89156912
Li       4.36745699       3.05089533       8.65152528       0.07308181      -0.02706398       5.69754181      -0.23227210       0.47607199      -0.90810815
Li       2.20509319       1.31891089       8.65080177       0.07308181       0.02706398       5.69754181      -0.28250374      -0.49145417      -0.89157854
Li       4.04775351       1.31891089      10.36114835      -0.07308181       0.02706398      -5.69754181       0.23227005      -0.47607237       0.90809748
Li       3.26601554       2.98277684      17.90818313      -1.31543287       0.03103145      -0.52868602       0.03802367       0.68784646       0.30060133
Li       2.98683116       2.98277684       1.10376698       1.31543287       0.03103145       0.52868602      -0.04162157       0.68860447      -0.34709268
Li       5.14919497       1.38702938       1.10449050       1.31543287      -0.03103145       0.52868602      -0.03801789      -0.68785671      -0.30051998
Li       5.42837934       1.38702938      17.90890665      -1.31543287      -0.03103145      -0.52868602       0.04161732      -0.68859727       0.34717285
Cu       4.03740742       3.21649304      12.23391813      -0.49081150       0.02503812       1.67115920      -0.24629257      -0.93599059      -0.36149237
Cu       2.21543928       3.21649304       6.77803199       0.49081150       0.02503812      -1.67115920      -0.00438236      -0.92380041       0.37313994
Cu       4.37780309       1.15331318       6.77875550       0.49081150      -0.02503812      -1.67115920       0.24628578       0.93599714       0.36148711
Cu       6.19977122       1.15331318      12.23464164      -0.49081150      -0.02503812       1.67115920       0.00438973       0.92379331      -0.37314622
Cu       4.83185234       1.11939098       3.52183225      -2.74742415      -1.15876448      -4.32652216       0.75820865      -0.04451107       1.23946144
Cu       5.74572197       1.11939098      15.49156489       2.74742415      -1.15876448       4.32652216      -0.77217511       0.01796803      -1.26150377
Cu       3.58335816       3.25041524      15.49084138       2.74742415       1.15876448       4.32652216      -0.75819589       0.04448328      -1.23947312
Cu       2.66948854       3.25041524       3.52110874      -2.74742415       1.15876448      -4.32652216       0.77218845      -0.01794641       1.26150004
Cu       2.74372251       1.16801163       2.64295638       0.10118012      -2.80093741      -3.26567531      -0.74930467      -0.64435201      -0.90752437
Cu       3.50912418       1.16801163      16.36899373      -0.10118012      -2.80093741       3.26567531       0.76842292      -0.69819851       0.95037844
Cu       5.67148799       3.20179459      16.36971725      -0.10118012       2.80093741       3.26567531       0.74928110       0.64431887       0.90750209
Cu       4.90608632       3.20179459       2.64367990       0.10118012       2.80093741      -3.26567531      -0.76842300       0.69824212      -0.95039651
20
Lattice="5.8610288807902595 0.0020141396085810144 -0.0006097266534161903 1.049488007129915 6.180978241579618 -0.0036382821957961333 1.3893631396857298 2.156103215675738 8.664905748698109" Properties=species:S:1:pos:R:3:optimize_forces:R:3:REF_forces:R:3 config_type=buildcell_optimize_mid buildcell_config_i=8 RSS_min_vol_per_atom=8.0 buildcell_type=narrow gap_rss_group=ALL gap_rss_iter=1 buildcell_symmetry="1 P1 P 1 @ 0.01" optimize_pressure_GPa=0.14728814123763798 optimize_config_type=optimize_mid optimize_energy=-41.366425226540954 optimize_stress="0.6367346874357713 0.6960101465590802 0.5271769780170651 0.06025080645770353 0.02503829104773244 -0.044109799312988085" optimize_virial="_JSON [[-199.89273852157012, 13.847570666863437, -7.86037365984751], [13.847570666863422, -218.50132713011337, -18.914783407615488], [-7.860373659847568, -18.91478340761542, -165.49883632967055]]" E_per_atom_dist_to_nearby=0.25851511323217347 _ConfigSet_loc=" / 0 / 1" vasp_rundir=run_iter_1/run_VASP_3s2e1iu6 REF_energy=-33.61526446 REF_stress="0.6812744470238122 0.6766155565350266 0.6867443965513644 7.913631890140236e-05 0.00032106206851473734 0.00987785850482434" pbc="T T T"
Li       6.55295467       7.86907000       8.84389477       1.37330247       3.61307483       1.85084309      -0.27795848      -0.14738883       0.09978906
Li       1.85444930       2.59120298       0.02715270      -3.53522668       0.55121282       1.57132979       0.10845065      -0.12509265      -0.23874828
Li       2.31112500       4.88158642       5.53768759       0.73420147       2.44481853       0.90179168      -0.00475219      -0.11543331      -0.12115677
Li       4.03492463       0.96692258       2.41319842      -5.64534674      -1.72217515       0.82367867      -0.08999422       0.09115743       0.05502395
Li       5.82521734       5.50260652       4.40534203       0.26958761      -1.05069259      -1.99289174       0.22523411      -0.13289416       0.21973906
Li       4.17479527       3.36826578       4.33455669      -0.17829730       2.51318575       0.88705913       0.18824470      -0.19158604      -0.15863029
Li       6.98945779       2.92679865       6.99270553      -1.12677132      -1.13821516      -2.13019929       0.26398116       0.36958505      -0.37783272
Li       6.04153225       7.58887409       6.13747009       0.65139739       0.21656504       1.94731725      -0.16821953       0.02417231       0.02358162
Li       0.99453757       4.75525286       2.03900547      -2.19155255      -1.40280826      -3.38775809       0.14634407      -0.22579677       0.09761945
Li       2.44468867       1.25937565       5.24471430       0.49633045      -2.42960487       1.20116645      -0.19824366      -0.09506723      -0.12516070
Cu       4.30991900       1.99173187       0.08869131       1.69332789       0.19626004      -2.81098623      -0.42940504      -0.21779617      -1.24674729
Cu       3.99273585       3.88418991       1.36567451       2.58596421       5.07600593       0.65294373       0.31551207       1.05478037       1.11805558
Cu       5.86151295       2.54048464       1.66331379      -0.87870789      -0.69920809       0.25981518       0.46214240       1.35692194       0.55825415
Cu       6.56226823       2.71780869       4.21416555      -1.14495717      -0.56107560       3.27637154      -0.42747461       0.90169263       1.40206154
Cu       6.57258465       0.80272988       2.95412895       2.95017472      -0.77826010      -1.41988250      -0.05503009      -0.94956207       1.39052575
Cu       2.41709405       2.81891985       2.67387845       0.96306767       1.80052135       1.10557902      -0.05798138      -0.26291342      -0.04486338
Cu       2.17002113       6.69131724       7.24059638      -0.49938971       4.17687652      -1.48233451      -0.42602834      -0.54908240       0.02046428
Cu       2.72819743       4.91061374      -0.21414348       1.47547408      -1.64338385       0.22829977       0.48494716       0.11816832      -1.14274046
Cu       3.50255723       5.58069815       3.49719089      -0.22107202      -5.13405347      -0.12989739       0.27525299      -0.74279795      -0.58296856
Cu       0.60299919       0.51908415       0.69957787       2.22849341      -4.02904368      -1.35224556      -0.33502174      -0.16106706      -0.94626600
20
Lattice="5.818803232529774 0.004714836237765255 -0.003389202891362491 1.0448109876634366 6.133063514885982 -0.012263423593286664 1.3762580170964924 2.1284436360198504 8.615994778445748" Properties=species:S:1:pos:R:3:optimize_forces:R:3:REF_forces:R:3 config_type=buildcell_optimize_mid buildcell_config_i=8 RSS_min_vol_per_atom=8.0 buildcell_type=narrow gap_rss_group=ALL gap_rss_iter=1 buildcell_symmetry="1 P1 P 1 @ 0.01" optimize_pressure_GPa=0.14728814123763798 optimize_config_type=optimize_mid optimize_energy=-48.07672677568942 optimize_stress="0.688123840271274 0.6965901465649829 0.5381335979193872 0.06201298736103983 0.044711833267828786 -0.04630329713574721" optimize_virial="_JSON [[-211.67391840073725, 14.24336691449788, -13.753816381293746], [14.243366914497882, -214.2782406501501, -19.075828009783574], [-13.753816381293836, -19.0758280097836, -165.53538858612703]]" E_per_atom_dist_to_nearby=0.2216530175743583 _ConfigSet_loc=" / 0 / 2" vasp_rundir=run_iter_1/run_VASP_w9gtt5yi REF_energy=-33.54193473 REF_stress="0.6937143670621212 0.6731334663911731 0.6856610478509362 -0.0020671324540650795 -0.0034005516678177207 0.01232047047356341" pbc="T T T"
Li       6.54332700       7.83975159       8.81252530       1.76856385       4.44823219       1.86691746      -0.41691606      -0.17980005       0.02727370
Li       1.82539645       2.58804802       0.02360839      -4.09694960       0.34952171       1.41234895       0.14627683      -0.17256323      -0.27794026
Li       2.30528754       4.86247495       5.51036369       0.41767226       2.53893859       0.70885199      -0.01649977      -0.17364429      -0.07517582
Li       3.94644250       0.94403088       2.37643060      -5.19272673      -2.14570459       0.55845243      -0.06409934       0.13465079       0.14136560
Li       5.82242638       5.43591200       4.33498812      -0.15444529      -1.09342564      -2.14253379       0.18044083      -0.06820938       0.20137339
Li       4.15126608       3.36957797       4.29847998       0.04931147       2.00016830       1.02255958       0.21462583      -0.38358009      -0.01106939
Li       6.92694101       2.88213900       6.94884414      -0.74699798      -0.95703441      -2.08132688       0.33951677       0.54435616      -0.37759046
Li       6.00618083       7.50478901       6.12168147       0.36375665       0.42727211       1.46534975      -0.40666959       0.06616946      -0.07737905
Li       0.93261304       4.69438075       1.97229460      -2.34327704      -0.49821451      -2.89406789       0.18964994      -0.14363885       0.19764835
Li       2.41557757       1.21365322       5.18672839       0.76854751      -2.64781706       1.66435224      -0.11705601      -0.05722854      -0.12606171
Cu       4.31006068       2.00228733       0.10951210       1.86861217       0.31991325      -2.92733899      -0.59036335      -0.45618935      -1.64054673
Cu       4.02220300       3.87653136       1.35723664       2.33744388       4.75410019       0.64861498       0.08098155       1.25586542       1.26676069
Cu       5.83723469       2.52945641       1.66035433      -1.72344947      -1.00467122       0.96730221       0.71480088       1.22192204       0.87428000
Cu       6.47422055       2.64900913       4.18407554      -1.60303083      -0.81472517       3.42748711      -0.39512122       1.18017227       1.47292866
Cu       6.54132957       0.79637212       2.92229793       4.11015415       0.22255304      -1.00151296       0.06674740      -1.23800347       1.72345177
Cu       2.39574305       2.85102377       2.66367358       0.70545225       1.60002770       1.00316940      -0.02368383       0.00750573      -0.01450091
Cu       2.11179287       6.67918761       7.18039536      -0.85712865       2.87873942      -1.54212474       0.16893097      -0.77248816       0.39469956
Cu       2.74944888       4.87798665      -0.20097896       1.88243589      -0.98590041       0.11699579       0.01684662       0.09767824      -1.47813347
Cu       3.45359119       5.45193033       3.43220298      -0.39345042      -5.54916454      -0.29308944       0.11563513      -0.71529515      -0.64612373
Cu       0.59790604       0.48274597       0.76073522       2.83950592      -3.84280896      -1.98040717      -0.20404359      -0.14767955      -1.57526019
20
Lattice="5.797139553581967 0.007969882736118067 -0.00490274224930895 1.0443890292581222 6.109817744500768 -0.016772940613259516 1.3701031200250415 2.1149372093121626 8.590217662386074" Properties=species:S:1:pos:R:3:optimize_forces:R:3:REF_forces:R:3 config_type=buildcell_optimize_mid buildcell_config_i=8 RSS_min_vol_per_atom=8.0 buildcell_type=narrow gap_rss_group=ALL gap_rss_iter=1 buildcell_symmetry="1 P1 P 1 @ 0.01" optimize_pressure_GPa=0.14728814123763798 optimize_config_type=optimize_mid optimize_energy=-51.080024692598585 optimize_stress="0.694949102415663 0.7014216797381494 0.5460319673927297 0.06832888726823413 0.050403526173012345 -0.0512693075807857" optimize_virial="_JSON [[-211.55994740517193, 15.607663895942494, -15.344098307532956], [15.607663895942533, -213.53036237968058, -20.80102808460827], [-15.344098307532986, -20.801028084608227, -166.2258342396629]]" E_per_atom_dist_to_nearby=0.19487255923250313 _ConfigSet_loc=" / 0 / 3" vasp_rundir=run_iter_1/run_VASP_8g0nsdmj REF_energy=-33.10546878 REF_stress="0.7004795016666867 0.6789558907099988 0.6939550509074561 5.8877996829648914e-05 -0.0003817554394811951 0.012270804688301691" pbc="T T T"
Li       6.53871412       7.81730138       8.78293602       2.02253055       4.53864496       1.93990662      -0.50050916      -0.20799489       0.01589052
Li       1.80257641       2.59185086       0.03634856      -4.21770657       0.11991554       1.25665633       0.22553968      -0.16912666      -0.34595239
Li       2.30862873       4.84831254       5.50010580       0.35107838       2.50569483       0.55401022      -0.01458134      -0.19949035      -0.07457857
Li       3.92017946       0.91940468       2.34167394      -4.73597068      -2.72757247       0.32551069      -0.10014691       0.21239534       0.19808169
Li       5.82709127       5.39981534       4.28500798      -0.53628580      -1.04507062      -2.23422974       0.14388033      -0.04325222       0.22851934
Li       4.14253707       3.36201152       4.27079802       0.34624852       1.77164577       0.93996436       0.22333318      -0.43603984       0.05092146
Li       6.88976554       2.86832985       6.94214851      -0.72527459      -0.50228440      -2.26947370       0.39339207       0.62849755      -0.44046996
Li       5.98690268       7.46378139       6.11212358       0.04323367       0.59900611       1.19904295      -0.52683940       0.08041602      -0.14640583
Li       0.89587648       4.67171585       1.93887950      -2.83680886       0.10317635      -2.73922391       0.26306789      -0.10362916       0.24583215
Li       2.40542863       1.18915791       5.15539427       0.99080808      -3.09696811       1.53902159      -0.08454062      -0.02731068      -0.10999028
Cu       4.31034605       2.00326681       0.11935607       2.07030752       1.22563080      -2.55066351      -0.61423651      -0.52701459      -1.73416570
Cu       4.02951526       3.85828606       1.34931682       2.29766709       4.52015686       0.58321547      -0.09686691       1.47426016       1.41170491
Cu       5.84106224       2.54008787       1.65999127      -1.83233981      -1.20485780       1.24288232       0.81857269       1.07260704       1.01008523
Cu       6.43360849       2.62096692       4.18417158      -1.70668598      -0.98565848       3.01239973      -0.30268031       1.26120845       1.42897701
Cu       6.50904420       0.79668631       2.91804425       3.80948498       0.51538194      -0.70125695       0.06029143      -1.33056726       1.78710718
Cu       2.38540019       2.86279632       2.66403658       0.76103357       1.48988384       0.86333077      -0.17964855      -0.02574214      -0.02663352
Cu       2.08552805       6.67427134       7.15073974      -0.75941759       2.24259217      -1.27546562       0.50510141      -0.94237429       0.53692371
Cu       2.76556121       4.88300896      -0.19645306       1.61541822      -0.71414154       0.29406020      -0.13044579      -0.01241751      -1.67716014
Cu       3.43229522       5.40309089       3.38586093      -0.07420401      -5.54677351      -0.13707086       0.07450617      -0.61281112      -0.68500943
Cu       0.58688124       0.46736193       0.78953212       3.11688333      -3.80840223      -1.84261695      -0.15718934      -0.09161387      -1.67367738
20
Lattice="5.7406383859293175 0.0190225437023248 -0.006910848227079975 1.0460043485910555 6.065378468855619 -0.020599765313638354 1.357863144163794 2.0964295539533326 8.524055395680264" Properties=species:S:1:pos:R:3:optimize_forces:R:3:REF_forces:R:3 config_type=buildcell_optimize_mid buildcell_config_i=8 RSS_min_vol_per_atom=8.0 buildcell_type=narrow gap_rss_group=ALL gap_rss_iter=1 buildcell_symmetry="1 P1 P 1 @ 0.01" optimize_pressure_GPa=0.14728814123763798 optimize_config_type=optimize_mid optimize_energy=-56.990004497224916 optimize_stress="0.7100556232497709 0.6522546961540869 0.5595762426725736 0.056204093449104785 0.043363190096915756 -0.06290076527178237" optimize_virial="_JSON [[-210.82961136649854, 18.676485986000642, -12.875392034644063], [18.67648598600067, -193.66736858271042, -16.68811117197885], [-12.875392034644044, -16.68811117197891, -166.14929578704957]]" E_per_atom_dist_to_nearby=0.1424318160006024 _ConfigSet_loc=" / 0 / 4" vasp_rundir=run_iter_1/run_VASP_a1cdblem REF_energy=-32.30476068 REF_stress="0.7120275525493425 0.6870146363141838 0.6973789704421582 0.0004096159446343109 -0.0006772992726970142 0.014709197559150903" pbc="T T T"
Li       6.52106501       7.77283688       8.69961111       2.31230852       4.41149680       1.94056244      -0.71405905      -0.29907409       0.12035962
Li       1.79331198       2.59832694       0.04833668      -2.86374983      -0.01982006       0.35657051       0.26758260      -0.12376358      -0.51101783
Li       2.30729202       4.83102396       5.44971853      -0.35764480       2.38153743      -0.10381230      -0.05168948      -0.18802220       0.02615367
Li       3.90187432       0.88985693       2.28520992      -4.38413306      -3.22508695       0.65913923      -0.28893227       0.29434211       0.36678913
Li       5.80524283       5.34975496       4.18841220      -1.53613969      -0.87472255      -2.02962221       0.11673269      -0.03834386       0.31003421
Li       4.10921696       3.35741123       4.20819798       0.36042973       1.59279302       1.20339193       0.29560999      -0.57330210       0.21543377
Li       6.80303135       2.85167148       6.90929914      -0.44649871      -0.06809251      -2.73969733       0.53077971       0.88733082      -0.54380370
Li       5.92919022       7.40642456       6.07270253      -0.25984600       0.85058259       0.65872137      -0.67985334       0.08273887      -0.21357837
Li       0.80468295       4.63374064       1.86784309      -3.17619139       0.45661246      -2.40518246       0.45809256      -0.01982080       0.35387930
Li       2.39505229       1.14905765       5.05726379       1.59765248      -3.56301241       0.96878668      -0.07307805       0.01777355       0.00577606
Cu       4.22164742       1.92707848       0.13502374       2.59116357       0.97639411      -2.02621183      -0.32103078      -0.28160488      -1.53870438
Cu       4.03957497       3.80806736       1.32968830       2.11280816       4.86115316       0.26429055      -0.13589735       1.75106281       1.34967111
Cu       5.84980102       2.53887910       1.64215688      -1.73725404      -1.65561936       1.61957783       0.40892885       1.27732851       0.69799608
Cu       6.34561154       2.59209882       4.21170026      -2.29629098      -0.91480485       3.08552939       0.09444225       1.37860690       1.18547839
Cu       6.42800019       0.81924599       2.90682101       2.96107745       0.09238616      -0.04522983       0.27676732      -1.62719267       2.64772539
Cu       2.37623350       2.88877216       2.64345315       0.77032322       0.83586793       0.87386366      -0.86267633      -0.42868675       0.24419759
Cu       2.04574016       6.69188901       7.13764454      -0.38011254       1.43637865      -0.96709128       0.83845269      -1.26770396       0.50446598
Cu       2.78328845       4.92102222      -0.16499999       1.33958665      -0.10438243       0.66421654      -0.07308465      -0.33558786      -1.89784610
Cu       3.39345510       5.30829604       3.30634621       0.35891702      -3.77585218      -0.28405637       0.06403063      -0.17589868      -0.84386258
Cu       0.58989672       0.45998456       0.86424454       3.03359424      -3.69380901      -1.69374653      -0.15111801      -0.33018214      -2.47914732
14
Lattice="3.512153443485439 0.0 -0.0008971010784111699 0.0 8.64377208946039 0.0 -1.4705138022307247 0.0 8.90952272903385" Properties=species:S:1:pos:R:3:optimize_forces:R:3:REF_forces:R:3 config_type=buildcell_optimize_mid buildcell_config_i=11 RSS_min_vol_per_atom=8.0 buildcell_type=wide gap_rss_group=ALL gap_rss_iter=1 buildcell_symmetry="10 P2/m -P 2y @ 0.01" optimize_pressure_GPa=0.07160215954539285 optimize_config_type=optimize_mid optimize_energy=-3.8028849453391658 optimize_stress="0.41995025375664036 0.8650830643484235 0.3079904529984959 0.0 0.009264331519965037 0.0" optimize_virial="_JSON [[-113.58232847348575, 3.855326497072443e-12, -2.5056880818024694], [3.857342016974241e-12, -233.97568615022803, -6.214285807327277e-12], [-2.5056880818024228, -6.1970319084132485e-12, -83.30099216809842]]" E_per_atom_dist_to_nearby=0.1663407638142192 _ConfigSet_loc=" / 0 / 5" vasp_rundir=run_iter_1/run_VASP_xlza2sra REF_energy=-21.60485644 REF_stress="0.5772462392243641 0.5774323341880087 0.5929749429533057 -1.4355470989531494e-09 -0.0027775521638669014 -6.366339308400923e-10" pbc="T T T"
Li       1.02136540       5.69449189       6.10009069      -0.04793641       3.81457776       0.23907475      -0.02004348      -0.20153673       0.00383198
Li       1.02027424       5.69449189       2.80853494       0.04793641       3.81457776      -0.23907475       0.02004363      -0.20153670      -0.00383194
Li       1.02027424       2.94928020       2.80853494       0.04793641      -3.81457776      -0.23907475       0.02004344       0.20153664      -0.00383198
Li       1.02136540       2.94928020       6.10009069      -0.04793641      -3.81457776       0.23907475      -0.02004361       0.20153653       0.00383192
Li       1.09590630      -0.00000000       6.34024161      -1.66417408       0.00000000       1.48021480      -0.10426158      -0.00000002      -0.30405621
Li       0.94573334       8.64377209       2.56838402       1.66417408       0.00000000      -1.48021480       0.10426156      -0.00000012       0.30405625
Li       1.75607672      -0.00000000      -0.00044855       0.00000000       0.00000000       0.00000000      -0.00000001      -0.00000007      -0.00000013
Cu       2.77372850       6.96982909       1.62195877       0.06662625      -5.41977670      -0.46207965       0.06244803       0.25516207       0.07205266
Cu      -0.73208886       6.96982909       7.28666686      -0.06662625      -5.41977670       0.46207965      -0.06245952       0.25516223      -0.07205216
Cu      -0.73208886       1.67394299       7.28666686      -0.06662625       5.41977670       0.46207965      -0.06244813      -0.25516189      -0.07205246
Cu       2.77372850       1.67394299       1.62195877       0.06662625       5.41977670      -0.46207965       0.06245960      -0.25516193       0.07205205
Cu      -0.73525690       2.31578994       4.45476137       0.00000000      16.09603700       0.00000000      -0.00006178       0.28288709      -0.00000195
Cu       2.77689654       6.32798215       4.45386426       0.00000000     -16.09603700      -0.00000000       0.00006183      -0.28288657       0.00000197
Cu      -0.73525690      -0.00000000       4.45476137       0.00000000       0.00000000       0.00000000       0.00000000      -0.00000053      -0.00000000
14
Lattice="3.454566504897339 -2.673367809458086e-15 -0.004812045834425471 -6.600002882832257e-15 8.417529274948993 2.4375390623940745e-14 -1.4527061166239343 1.5926871706810627e-14 8.94671581691432" Properties=species:S:1:pos:R:3:optimize_forces:R:3:REF_forces:R:3 config_type=buildcell_optimize_mid buildcell_config_i=11 RSS_min_vol_per_atom=8.0 buildcell_type=wide gap_rss_group=ALL gap_rss_iter=1 buildcell_symmetry="10 P2/m -P 2y @ 0.01" optimize_pressure_GPa=0.07160215954539285 optimize_config_type=optimize_mid optimize_energy=-12.44616292021519 optimize_stress="0.27615056524711606 0.8772008169467608 0.3543951899080466 1.7803519822761377e-15 0.09909750641112033 4.3127791702491625e-15" optimize_virial="_JSON [[-71.82729867246927, -2.774782014582404e-12, -25.775453996695422], [-2.7478139653051743e-12, -228.1616371785682, 1.5896534719103844e-11], [-25.775453996695436, 1.587644098676334e-11, -92.17887760190835]]" E_per_atom_dist_to_nearby=0.4207424362343474 _ConfigSet_loc=" / 0 / 6" vasp_rundir=run_iter_1/run_VASP_zh4wzek2 REF_energy=-20.84630394 REF_stress="0.6030238024991158 0.5803323224038397 0.6174626562682146 1.9723168837791097e-09 0.0028425930642565025 -2.746264015388634e-10" pbc="T T T"
Li       1.01795532       5.68804109       6.21498414       1.31256015       6.06583290       0.40290610       0.04224275      -0.52163290      -0.27957452
Li       0.98390507       5.68804109       2.72691963      -1.31256015       6.06583290      -0.40290610      -0.04224307      -0.52163292       0.27957469
Li       0.98390507       2.72948818       2.72691963      -1.31256015      -6.06583290      -0.40290610      -0.04224279       0.52163325       0.27957468
Li       1.01795532       2.72948818       6.21498414       1.31256015      -6.06583290       0.40290610       0.04224300       0.52163330      -0.27957478
Li       1.07728759       0.00000000       6.46480750       0.30583659      -0.00000000      -1.22725087       0.05758148       0.00000049      -0.43242993
Li       0.92457280       8.41752927       2.47709627      -0.30583659       0.00000000       1.22725087      -0.05758155       0.00000047       0.43242989
Li       1.72728325      -0.00000000      -0.00240602       0.00000000       0.00000000       0.00000000      -0.00000002       0.00000016       0.00000004
Cu       2.65757301       6.73874455       1.48665067       0.40080185      -1.49085346       1.12609514       0.39220211       0.21591079      -0.38156394
Cu      -0.65571262       6.73874455       7.45525310      -0.40080185      -1.49085346      -1.12609514      -0.39214530       0.21590988       0.38156471
Cu      -0.65571262       1.67878473       7.45525310      -0.40080185       1.49085346      -1.12609514      -0.39220227      -0.21591107       0.38156445
Cu       2.65757301       1.67878473       1.48665067       0.40080185       1.49085346       1.12609514       0.39214567      -0.21591098      -0.38156503
Cu      -0.72635306       2.17192993       4.47335791      -0.00000000      11.24388926       0.00000000       0.00001328       1.46474641      -0.00000066
Cu       2.72821345       6.24559935       4.46854586       0.00000000     -11.24388926      -0.00000000      -0.00001328      -1.46474653       0.00000053
Cu      -0.72635306       0.00000000       4.47335791       0.00000000       0.00000000       0.00000000      -0.00000001      -0.00000033      -0.00000014
14