14
Lattice="3.4881576353699644 -1.793120327230864e-21 -0.005744035642978115 -1.4297003235962742e-20 8.572651879944464 1.1511111498701347e-17 -1.4726065351961424 1.1656054974553427e-17 8.920296294567905" Properties=species:S:1:pos:R:3:optimize_forces:R:3:REF_forces:R:3 config_type=buildcell_optimize_mid buildcell_config_i=11 RSS_min_vol_per_atom=8.0 buildcell_type=wide gap_rss_group=ALL gap_rss_iter=1 buildcell_symmetry="10 P2/m -P 2y @ 0.01" optimize_pressure_GPa=0.07160215954539285 optimize_config_type=optimize_mid optimize_energy=-7.253400042327652 optimize_stress="0.3780350076194751 0.8476350510148343 0.27629156447380543 -8.148732208945995e-22 0.04897101637993047 -7.275865485903892e-21" optimize_virial="_JSON [[-100.81020822358786, -9.230804187518141e-12, -13.059050772225888], [-9.213778999610797e-12, -226.0379707384933, -1.954609838527743e-14], [-13.059050772225898, -2.593751297855384e-14, -73.67838846570967]]" E_per_atom_dist_to_nearby=0.2126572971555265 _ConfigSet_loc=" / 0 / 0" vasp_rundir=run_iter_1/run_VASP_2rdt0zu6 REF_energy=-21.58668281 REF_stress="0.5848363968337842 0.5740653511288586 0.5999330334192828 -3.726180948152305e-09 -0.0018795164346465042 4.493886570635946e-10" pbc="T T T"
Li       0.99491477       5.70840278       6.14352683       0.53339596       4.14705909       0.09184508       0.04221866      -0.34479435      -0.09238260
Li       1.02063633       5.70840278       2.77102543      -0.53339596       4.14705909      -0.09184508      -0.04221904      -0.34479403       0.09238227
Li       1.02063633       2.86424910       2.77102543      -0.53339596      -4.14705909      -0.09184508      -0.04221865       0.34479409       0.09238225
Li       0.99491477       2.86424910       6.14352683       0.53339596      -4.14705909       0.09184508       0.04221911       0.34479377      -0.09238191
Li       1.07015189      -0.00000000       6.40206021      -0.56884037       0.00000000       1.26811033      -0.01857094       0.00000047      -0.40117244
Li       0.94539921       8.57265188       2.51249205       0.56884037      -0.00000000      -1.26811033       0.01857099      -0.00000018       0.40117251
Li       1.74407882      -0.00000000      -0.00287202       0.00000000       0.00000000       0.00000000      -0.00000003       0.00000033       0.00000005
Cu       2.73398221       6.89762960       1.55428040      -0.14847389      -4.67388487      -0.43965537       0.21058048       0.24779876      -0.06298243
Cu      -0.71843111       6.89762960       7.36027187       0.14847389      -4.67388487       0.43965537      -0.21041605       0.24779898       0.06298710
Cu      -0.71843111       1.67502228       7.36027187       0.14847389       4.67388487       0.43965537      -0.21058055      -0.24779869       0.06298269
Cu       2.73398221       1.67502228       1.55428040      -0.14847389       4.67388487      -0.43965537       0.21041594      -0.24779889      -0.06298698
Cu      -0.73630327       2.27264835       4.46014815      -0.00000000      15.21158424       0.00000000       0.00003982       0.73623343       0.00000023
Cu       2.75185437       6.30000353       4.45440411       0.00000000     -15.21158424      -0.00000000      -0.00003977      -0.73623381      -0.00000065
Cu      -0.73630327      -0.00000000       4.46014815       0.00000000       0.00000000       0.00000000       0.00000005       0.00000012      -0.00000007
14
Lattice="3.467896514871719 -1.3044138274727178e-16 -0.006247873567907277 -3.3500701913803135e-16 8.475236435586122 1.0619288913247076e-14 -1.464120891304172 9.589362207471983e-15 8.968496048188209" Properties=species:S:1:pos:R:3:optimize_forces:R:3:REF_forces:R:3 config_type=buildcell_optimize_mid buildcell_config_i=11 RSS_min_vol_per_atom=8.0 buildcell_type=wide gap_rss_group=ALL gap_rss_iter=1 buildcell_symmetry="10 P2/m -P 2y @ 0.01" optimize_pressure_GPa=0.07160215954539285 optimize_config_type=optimize_mid optimize_energy=-10.230602202505022 optimize_stress="0.3233459409803361 0.8425391355763396 0.3276587602555846 7.268362204845052e-16 0.07789796401390209 1.8953566692063057e-15" optimize_virial="_JSON [[-85.20738428107066, 4.20757758726349e-12, -20.527493663046226], [4.222380275874198e-12, -222.02398978393293, 1.236390850755061e-11], [-20.527493663046215, 1.2360775048605326e-11, -86.34388857182115]]" E_per_atom_dist_to_nearby=0.1582543369792977 _ConfigSet_loc=" / 0 / 1" vasp_rundir=run_iter_1/run_VASP_my8uigd8 REF_energy=-21.35271894 REF_stress="0.5913479763216877 0.5688137186678889 0.6075466879575129 -1.3831184222957302e-08 -0.0011828261225368143 -2.9459923074168976e-09" pbc="T T T"
Li       0.99271986       5.70481853       6.21870265       0.77373405       5.70036862      -0.15571699       0.04308252      -0.47140489      -0.22498300
Li       1.01105576       5.70481853       2.74354553      -0.77373405       5.70036862       0.15571699      -0.04308203      -0.47140437       0.22498236
Li       1.01105576       2.77041790       2.74354553      -0.77373405      -5.70036862       0.15571699      -0.04308258       0.47140489       0.22498217
Li       0.99271986       2.77041790       6.21870265       0.77373405      -5.70036862      -0.15571699       0.04308221       0.47140437      -0.22498190
Li       1.06755194       0.00000000       6.47110919      -0.33494211      -0.00000000      -0.77352319       0.00677665       0.00000066      -0.45166139
Li       0.93622369       8.47523644       2.49113899       0.33494211       0.00000000       0.77352319      -0.00677657      -0.00000041       0.45166116
Li       1.73394826      -0.00000000      -0.00312394       0.00000000       0.00000000       0.00000000      -0.00000015       0.00000059       0.00000041
Cu       2.70796226       6.81047243       1.51585649      -0.43636185      -2.07285168       0.51549375       0.31816073       0.24310260      -0.21633706
Cu      -0.70418664       6.81047243       7.44639169       0.43636185      -2.07285168      -0.51549375      -0.31795045       0.24310266       0.21634394
Cu      -0.70418664       1.66476401       7.44639169       0.43636185       2.07285168      -0.51549375      -0.31816094      -0.24310323       0.21633811
Cu       2.70796226       1.66476401       1.51585649      -0.43636185       2.07285168       0.51549375       0.31795054      -0.24310313      -0.21634390
Cu      -0.73206045       2.20976483       4.48424803      -0.00000000      11.87265356       0.00000000      -0.00003521       1.23911596      -0.00000054
Cu       2.73583607       6.26547160       4.47800015       0.00000000     -11.87265356      -0.00000000       0.00003521      -1.23911494      -0.00000024
Cu      -0.73206045       0.00000000       4.48424803       0.00000000       0.00000000       0.00000000       0.00000008      -0.00000077      -0.00000013
14
Lattice="3.4566328938607644 -2.644116295915831e-15 -0.004131089640132187 -6.53850821013388e-15 8.432539412357198 2.4607848598943376e-14 -1.4518885044617438 1.5325160789847126e-14 8.95290702621997" Properties=species:S:1:pos:R:3:optimize_forces:R:3:REF_forces:R:3 config_type=buildcell_optimize_mid buildcell_config_i=11 RSS_min_vol_per_atom=8.0 buildcell_type=wide gap_rss_group=ALL gap_rss_iter=1 buildcell_symmetry="10 P2/m -P 2y @ 0.01" optimize_pressure_GPa=0.07160215954539285 optimize_config_type=optimize_mid optimize_energy=-11.328394859508027 optimize_stress="0.28857141213774246 0.8602865684548777 0.34928085028608513 1.5250165874152624e-15 0.09331264372417154 4.0843615033197425e-15" optimize_virial="_JSON [[-75.29130725301495, -8.494609628347382e-13, -24.346247180833743], [-8.23589101476501e-13, -224.45778627669722, 1.5425393891224488e-11], [-24.346247180833696, 1.5456879063012123e-11, -91.13103623698993]]" E_per_atom_dist_to_nearby=0.5005830119991447 _ConfigSet_loc=" / 0 / 2" vasp_rundir=run_iter_1/run_VASP_acl8jld5 REF_energy=-21.01829345 REF_stress="0.5983659921284504 0.5721674488436026 0.6137872542347861 -3.2767922910887106e-09 0.001332588393989877 2.147079139303841e-09" pbc="T T T"
Li       1.01773018       5.68944167       6.21869019       1.34948753       6.00971326       0.64064036       0.04697366      -0.49382029      -0.27458977
Li       0.98701421       5.68944167       2.73008575      -1.34948753       6.00971326      -0.64064036      -0.04697350      -0.49382027       0.27458966
Li       0.98701421       2.74309775       2.73008575      -1.34948753      -6.00971326      -0.64064036      -0.04697364       0.49382021       0.27458971
Li       1.01773018       2.74309775       6.21869019       1.34948753      -6.00971326       0.64064036       0.04697354       0.49382015      -0.27458961
Li       1.07859602       0.00000000       6.47178765       0.37045409      -0.00000000      -1.33449110       0.05976725      -0.00000037      -0.43807374
Li       0.92614837       8.43253941       2.47698829      -0.37045409       0.00000000       1.33449110      -0.05976722      -0.00000025       0.43807375
Li       1.72831645      -0.00000000      -0.00206554       0.00000000       0.00000000       0.00000000      -0.00000000      -0.00000012      -0.00000000
Cu       2.65877682       6.75217730       1.48687938       0.44990928      -0.97355119       0.88100453       0.39403889       0.20748072      -0.37313488
Cu      -0.65403243       6.75217730       7.46189656      -0.44990928      -0.97355119      -0.88100453      -0.39396560       0.20748195       0.37313615
Cu      -0.65403243       1.68036211       7.46189656      -0.44990928       0.97355119      -0.88100453      -0.39403891      -0.20748052       0.37313472
Cu       2.65877682       1.68036211       1.48687938       0.44990928       0.97355119       0.88100453       0.39396551      -0.20748142      -0.37313609
Cu      -0.72594425       2.15999314       4.47645351      -0.00000000      10.86804968       0.00000000       0.00010413       1.56915088       0.00000174
Cu       2.73068864       6.27254627       4.47232242       0.00000000     -10.86804968      -0.00000000      -0.00010413      -1.56915069      -0.00000168
Cu      -0.72594425       0.00000000       4.47645351       0.00000000       0.00000000       0.00000000       0.00000001      -0.00000000       0.00000004
16
Lattice="3.4909448868692263 0.0 0.0 0.0 8.637862307478393 -0.03712095396813353 0.0 -3.876725353463686 11.734737429855002" Properties=species:S:1:pos:R:3:optimize_forces:R:3:REF_forces:R:3 config_type=buildcell_optimize_mid buildcell_config_i=30 RSS_min_vol_per_atom=10.0 buildcell_type=wide_even gap_rss_group=ALL gap_rss_iter=1 buildcell_symmetry="7 Pc P -2yc @ 0.01" optimize_pressure_GPa=0.12239375834310232 optimize_config_type=optimize_mid optimize_energy=-32.319556364984344 optimize_stress="-0.061554009972847545 -0.0075334754526627055 -0.05055884377361279 0.021229490334657482 0.0 0.0" optimize_virial="_JSON [[21.750136114724913, -1.1324274851176597e-12, -2.866984427640773e-12], [-1.1526335441658375e-12, 2.6619568178357724, -7.501449615203298], [-2.874922522266843e-12, -7.501449615203297, 17.86498937054254]]" E_per_atom_dist_to_nearby=0.02332396713851992 _ConfigSet_loc=" / 0 / 3" vasp_rundir=run_iter_1/run_VASP_624jxqzb REF_energy=-27.71566701 REF_stress="-0.0004579152763031006 -0.011539188264255568 -0.0018024542940578154 0.0026023275560706524 2.434188559094471e-10 5.492528030777268e-10" pbc="T T T"
Li       2.21365394       4.61795231       8.19040016       0.35555565       0.22593259       0.85815633      -0.01978094       0.27548218      -0.59936683
Li       1.27729095       0.29902116       8.20896064      -0.35555565       0.22593259       0.85815633       0.01978163       0.27547722      -0.59936894
Li       0.87086293      -1.01535946       3.92343692       0.51684870      -0.12859830       0.09119217       0.02176489       0.06849487      -0.14056990
Li       2.62008195       3.30357169       3.90487645      -0.51684870      -0.12859830       0.09119217      -0.02176511       0.06849480      -0.14056808
Li      -0.44701461       2.15011112       0.29869622      -0.02308334      -0.07007170      -0.10814353      -0.00749252       0.30907441      -0.07844692
Li       3.93795949       6.46904228       0.28013574       0.02308334      -0.07007170      -0.10814353       0.00749281       0.30908347      -0.07844166
Li       0.29553529       2.83457669       9.14005289       0.27103361       0.36344713      -0.13955896      -0.06958120      -0.22394626       0.05678985
Li       3.19540959      -1.48435447       9.15861337      -0.27103361       0.36344713      -0.13955896       0.06958073      -0.22395316       0.05679010
Li       1.28963299      -3.32742657      10.55306652       0.51938727      -0.33358611      -0.46483349      -0.11735883      -0.26868261       0.15229632
Li       2.20131190       0.99150459      10.53450605      -0.51938727      -0.33358611      -0.46483349       0.11735849      -0.26868427       0.15229644
Li       0.74097243       1.42762623       2.73309238      -0.49609779      -0.35856722       0.33656684       0.07224568       0.17263419      -0.25939158
Li       2.74997245       5.74655739       2.71453191       0.49609779      -0.35856722       0.33656684      -0.07224604       0.17264439      -0.25938899
Li       1.15233239       4.11952538       1.27467210       0.70726318       0.15791350      -0.40447789       0.02588731      -0.23065626       0.22883606
Li       2.33861250      -0.19940578       1.29323258      -0.70726318       0.15791350      -0.40447789      -0.02588703      -0.23065557       0.22883661
Li       0.93082375       5.24926352       4.91731157      -0.03199293       0.14353012      -0.16890148      -0.01774727      -0.10240028       0.63984981
Li       2.56012113       0.93033237       4.93587204       0.03199293       0.14353012      -0.16890148       0.01774739      -0.10240713       0.63984772
20
Lattice="4.721782421471017 -2.2185439916230237e-30 3.0870093650439406e-30 -8.352736156281527e-30 9.264728256996651 -4.576958906434427e-14 7.34733320619109e-30 -4.632364128498368 8.02349002971864" Properties=species:S:1:pos:R:3:optimize_forces:R:3:REF_forces:R:3 config_type=buildcell_optimize_mid buildcell_config_i=31 RSS_min_vol_per_atom=10.0 buildcell_type=wide_even gap_rss_group=ALL gap_rss_iter=1 buildcell_symmetry="173 P6_3 P 6c @ 0.01" optimize_pressure_GPa=0.12206240002554146 optimize_config_type=optimize_mid optimize_energy=-38.898290336363466 optimize_stress="0.043214937456518436 -0.02686068240228452 -0.026860682402284543 -2.6429957174181095e-16 1.3400394064550918e-31 1.7319838770745218e-31" optimize_virial="_JSON [[-15.168263435480718, 3.1996739884522466e-12, -1.874572638248766e-12], [3.199255639053933e-12, 9.42798788368739, 4.483076670308561e-12], [-1.885588907235558e-12, 4.4459505521565745e-12, 9.42798788369982]]" E_per_atom_dist_to_nearby=0.04200677743347536 _ConfigSet_loc=" / 0 / 4" vasp_rundir=run_iter_1/run_VASP_a8gab_j5 REF_energy=-36.10228911 REF_stress="-0.019873764924931304 -0.016000271416518226 -0.016000133972245766 1.1403861323901301e-07 -6.759554383331569e-09 -5.224143138364287e-09" pbc="T T T"
Li       2.40512782       0.14155423       7.32546268      -0.25322237      -0.05553141      -0.16864881      -0.01863326      -0.11071715       0.21054180
Li       2.40512782      -1.78245116       4.48334745      -0.25322237       0.17381986       0.03623279      -0.01863365      -0.12697317      -0.20115316
Li       2.40512782       1.64089553       4.23816752      -0.25322237      -0.11828845       0.13241602      -0.01863329       0.23768824      -0.00938826
Li       4.76601903       4.49080896       0.69802574      -0.25322237       0.05553141       0.16864881      -0.01863435       0.11071852      -0.21053861
Li       4.76601903       6.41481435       3.54014098      -0.25322237      -0.17381986      -0.03623279      -0.01863410       0.12697412       0.20114861
Li       4.76601903       2.99146766       3.78532090      -0.25322237       0.11828845      -0.13241602      -0.01863497      -0.23769112       0.00938431
Li       4.11333188      -1.76794958       6.46604129       0.07870181       0.07590651      -0.52254198       0.17118032      -0.02062590      -0.02982830
Li       4.11333188      -0.08341849       3.25937933       0.07870181       0.41458137       0.32700795       0.17117992       0.03614936      -0.00294796
Li       4.11333188       1.85136667       6.32155703       0.07870181      -0.49048788       0.19553402       0.17118171      -0.01552485       0.03277448
Li       1.75244067       6.40031277       1.55744714       0.07870181      -0.07590651       0.52254198       0.17118145       0.02062531       0.02982995
Li       1.75244067       4.71578168       4.76410909       0.07870181      -0.41458137      -0.32700795       0.17118143      -0.03614770       0.00294575
Li       1.75244067       2.78099652       1.70193139       0.07870181       0.49048788      -0.19553402       0.17118364       0.01552261      -0.03277470
Li       1.78163448       3.12212585       7.04598959       0.10277044       0.14692135       0.30473899      -0.11075142      -0.01362065      -0.02180129
Li       1.78163448      -3.03070617       7.20433474       0.10277044      -0.33737238      -0.02513188      -0.11075005       0.02569228      -0.00089769
Li       1.78163448      -0.09142109       1.79665332       0.10277044       0.19045103      -0.27960711      -0.11075041      -0.01206945       0.02269851
Li       4.14252569       1.51023734       0.97749884       0.10277044      -0.14692135      -0.30473899      -0.11075299       0.01362010       0.02180431
Li       4.14252569       7.66306936       0.81915368       0.10277044       0.33737238       0.02513188      -0.11075116      -0.02569307       0.00090198
Li       4.14252569       4.72378428       6.22683510       0.10277044      -0.19045103       0.27960711      -0.11075175       0.01207107      -0.02269651
Li       3.20058445       4.63236366       2.67449587       0.21525036      -0.00000000       0.00000000      -0.12538849      -0.00000046      -0.00000235
Li       0.83969324      -0.00000047       5.34899255       0.21525036      -0.00000000       0.00000000      -0.12538859       0.00000189      -0.00000087
20
Lattice="4.69353654929628 -5.445277537350888e-30 2.1627599906354487e-30 -5.536211289883355e-29 9.297312324456112 -1.5996541476216038e-13 5.886921433755732e-29 -4.648656162228191 8.051708659897201" Properties=species:S:1:pos:R:3:optimize_forces:R:3:REF_forces:R:3 config_type=buildcell_optimize_mid buildcell_config_i=31 RSS_min_vol_per_atom=10.0 buildcell_type=wide_even gap_rss_group=ALL gap_rss_iter=1 buildcell_symmetry="173 P6_3 P 6c @ 0.01" optimize_pressure_GPa=0.12206240002554146 optimize_config_type=optimize_mid optimize_energy=-39.16167168419631 optimize_stress="0.041099720081323274 -0.02570301348726751 -0.025703013487267643 -8.698655956834897e-16 -9.905675471482667e-31 1.453833399966e-30" optimize_virial="_JSON [[-14.44057680512202, -5.656030777676645e-12, -1.60939554840984e-12], [-5.659553311025342e-12, 9.030872707922594, 1.5150117271822694e-11], [-1.6093489388357973e-12, 1.517913746085231e-11, 9.030872707936902]]" E_per_atom_dist_to_nearby=0.02883771004183333 _ConfigSet_loc=" / 0 / 5" vasp_rundir=run_iter_1/run_VASP_3t35zmyh REF_energy=-36.07202423 REF_stress="-0.021152207509480596 -0.01522378862189424 -0.015223647413991775 1.221712996300389e-07 6.659690237317436e-09 1.551639168694578e-08" pbc="T T T"
Li       2.37381819       0.13323274       7.33531393      -0.19239119      -0.05875177      -0.10753103      -0.00937216      -0.09727333       0.25759908
Li       2.37381819      -1.77052982       4.49943384      -0.19239119       0.12250049       0.00288499      -0.00937186      -0.17445185      -0.21304007
Li       2.37381819       1.63729566       4.26866714      -0.19239119      -0.06374872       0.10464604      -0.00937250       0.27172597      -0.04455536
Li       4.72058647       4.51542248       0.71639312      -0.19239119       0.05875177       0.10753103      -0.00936887       0.09727676      -0.25759440
Li       4.72058647       6.41918504       3.55227321      -0.19239119      -0.12250049      -0.00288499      -0.00936952       0.17444470       0.21303940
Li       4.72058647       3.01135956       3.78303991      -0.19239119       0.06374872      -0.10464604      -0.00937006      -0.27171798       0.04455805
Li       4.09044439      -1.76312629       6.47211163       0.05997740       0.11324709      -0.45022511       0.18110316      -0.04469383       0.00235768
Li       4.09044439      -0.07479518       3.28873989       0.05997740       0.33328284       0.32318741       0.18110278       0.02030433      -0.03988360
Li       4.09044439       1.83792006       6.34256339       0.05997740      -0.44652993       0.12703770       0.18110400       0.02439123       0.03752495
Li       1.74367612       6.41178151       1.57959542       0.05997740      -0.11324709       0.45022511       0.18110165       0.04469050      -0.00235845
Li       1.74367612       4.72345040       4.76296716       0.05997740      -0.33328284      -0.32318741       0.18110040      -0.02030680       0.03988301
Li       1.74367612       2.81073516       1.70914366       0.05997740       0.44652993      -0.12703770       0.18110175      -0.02438366      -0.03752219
Li       1.78616228       3.13508029       7.07454800       0.07022946       0.10473055       0.28510725      -0.12276217      -0.01711253      -0.02085272
Li       1.78616228      -3.04562368       7.22949304       0.07022946      -0.29927540      -0.05185431      -0.12276135       0.02661309      -0.00440080
Li       1.78616228      -0.08945803       1.79937387       0.07022946       0.19454485      -0.23325294      -0.12276109      -0.00950012       0.02524484
Li       4.13293055       1.51357493       0.97715905       0.07022946      -0.10473055      -0.28510725      -0.12275944       0.01711270       0.02084977
Li       4.13293055       7.69427890       0.82221401       0.07022946       0.29927540       0.05185431      -0.12275915      -0.02661627       0.00439591
Li       4.13293055       4.73811325       6.25233318       0.07022946      -0.19454485       0.23325294      -0.12275969       0.00949624      -0.02524762
Li       3.18149200       4.64865569       2.68390208       0.18655300       0.00000000       0.00000000      -0.14691315       0.00000015       0.00000128
Li       0.83472373      -0.00000047       5.36780497       0.18655300       0.00000000      -0.00000000      -0.14691276       0.00000070       0.00000123
22
Lattice="6.644407624267848 -0.011934026359577299 -0.01713557049044841 -1.7223363455659992 6.417308829342165 -0.017135570490658104 -1.7223363455658622 -2.2413754709092673 6.01318403487998" Properties=species:S:1:pos:R:3:optimize_forces:R:3:REF_forces:R:3 config_type=buildcell_optimize_mid buildcell_config_i=80 RSS_min_vol_per_atom=6.0 buildcell_type=narrow_even gap_rss_group=ALL gap_rss_iter=1 buildcell_symmetry="146 R3 R 3 @ 0.01" optimize_pressure_GPa=0.20780421526200832 optimize_config_type=optimize_mid optimize_energy=-62.5520384034053 optimize_stress="1.5870406769795784 1.6019728880686148 1.6406851451653657 0.05235555378894834 0.04023148925878246 0.02801912276947594" optimize_virial="_JSON [[-405.90590776527415, -7.166248242709722, -10.289716832883908], [-7.166248242709759, -409.72501132378244, -13.390601069959784], [-10.289716832883947, -13.390601069959747, -419.6261651419906]]" E_per_atom_dist_to_nearby=0.8185569741739376 _ConfigSet_loc=" / 0 / 6" vasp_rundir=run_iter_1/run_VASP_4fe2rp4o REF_energy=-28.36596758 REF_stress="1.7445666262152464 1.7551859108553534 1.7827167139062527 0.037233427941429614 0.028611228752739522 0.019926231518756662" pbc="T T T"
Cu       2.28427329      -0.04531527       4.83959388      -0.41965568       1.41823969      -3.61943814      -0.19518567       0.98899142      -2.48526272
Cu      -0.63194299       3.77795082       3.73756104       1.47847475      -3.38087070      -1.29293189       1.00589388      -2.35395948      -0.79983910
Cu       3.81328455       3.38008382       1.63570203      -3.64755791      -1.40624392       0.07514310      -2.53360170      -0.87708865       0.06581815
Cu       1.55724005       4.72317661       3.44165175       0.36506714      -2.12553736       1.74211896      -0.14439559      -1.42569961       0.91513880
Cu       4.16296895       2.28460187       3.74548320      -2.14786936       1.70147844       0.42165140      -1.34042590       1.03402018      -0.15785106
Cu       1.13569026       1.91419804       5.62355884       2.19714483       0.96326682      -1.38954424       1.34431272       0.20878960      -1.01988080
Cu      -1.14223113       1.92555675       1.97841685       0.32984009       0.54350900       1.13548841       0.72068441      -0.08611857      -0.66678494
Cu       2.15473588       2.06646749       0.11584201       0.44025643       0.90598507       0.82395131      -0.26880471      -0.85922006       0.40115312
Cu       1.44199124      -0.79784725       2.49212660       0.76208105       0.54441684       0.90353374      -0.76103697       0.54305621      -0.31202436
Cu       4.17575889       5.08334601       3.12790983       0.14790151      -1.62872284       5.37959577       0.05953838      -0.65990717       3.35708408
Cu       3.83677745       1.08077148       6.09690583      -1.61188978       5.14166448       1.60616354      -0.65297197       3.18773378       1.05871864
Cu       0.05643670       4.33650180       5.85258541       5.38333568       1.58753085       0.33779631       3.24841737       0.92722566       0.54517655
Cu       1.42525822       4.89135376       1.15307095       0.07527215      -0.13288201      -0.75067397      -0.01896293       0.21828965      -0.21751012
Cu       4.35945849       0.16723143       2.87287844      -0.14778280      -0.71745329      -0.22417841       0.21581822      -0.21716084      -0.03989409
Cu      -0.96088212       1.21894857       4.98769938      -0.65521212      -0.09669225      -0.38494496      -0.26539155      -0.09035532       0.12933528
Cu       1.01482856       2.82477411       1.94455771      -1.69216086       2.18925608      -1.99131421      -0.87416290       2.11360250      -0.09536088
Cu       2.46823423       1.23164753       2.27626770       2.55114033      -1.49622602      -1.69545675       2.26742483       0.01474459      -0.31489191
Cu       0.55459879       1.19801988       3.32380791      -2.10264716      -2.31148646       1.36289695      -0.56957295      -1.05642017       1.94938216
Cu      -2.09502549       4.22861532       5.45816950      -1.84385571      -2.93321967       1.04410327      -1.47853742      -0.74366645       0.86256999
Cu       4.62546930       5.44393478       1.01515588      -2.35956515       1.85904039      -2.01746235      -0.33789793       1.37086641      -1.22052048
Cu       4.06941682      -1.08377140       5.85894358       2.40390186      -1.26763841      -2.38915924       1.41163959      -1.15395795      -0.39842235
Cu       2.56796202       3.34183686       4.79840410       0.49378072       0.64258528       0.92266139      -0.83278123      -1.08376573      -1.55613394
11
Lattice="3.43953798074053 0.02032328140771614 0.04698846192158261 -1.6440867355813136 3.6871837279207367 -0.06401968158627319 -0.21768279685287256 -1.4828555377378427 9.621141258616468" Properties=species:S:1:pos:R:3:optimize_forces:R:3:REF_forces:R:3 config_type=buildcell_optimize_mid buildcell_config_i=88 RSS_min_vol_per_atom=6.0 buildcell_type=narrow_odd gap_rss_group=ALL gap_rss_iter=1 buildcell_symmetry="1 P1 P 1 @ 0.01" optimize_pressure_GPa=0.2935969935171794 optimize_config_type=optimize_mid optimize_energy=-45.17959805340159 optimize_stress="1.5742375987513177 1.6052668165060553 1.4690918991913728 0.05508697234829414 -0.0021811000980587938 0.06895889522655292" optimize_virial="_JSON [[-192.316458779853, -8.424351280811072, 0.2664537090435617], [-8.424351280811052, -196.1071376977199, -6.729690267422722], [0.26645370904352894, -6.72969026742271, -179.4713529258585]]" E_per_atom_dist_to_nearby=0.33603733130665603 _ConfigSet_loc=" / 0 / 7" vasp_rundir=run_iter_1/run_VASP_eg33ics5 REF_energy=-12.52903578 REF_stress="1.7231083294371836 1.7648919088883515 1.8032654075724734 0.008546371624848018 0.014991680366679335 0.024451823264303122" pbc="T T T"
Cu       1.00378760       1.51146706       9.60661395       0.41452384       1.99943839      -0.13547192       0.90002484       0.92449328       2.14081537
Cu      -0.33302788       2.66005829       6.07517845      -0.65623584      -1.68486174       1.53228529      -0.44874873      -0.81659017       2.79052551
Cu       1.36694292       1.03471462       2.30480271      -0.47289444      -2.05224821       1.54902860      -0.48287598      -1.16216023      -1.69562195
Cu       0.92182391      -0.70364503       9.61917739       2.45802461      -0.02604302      -5.95616931       1.34820116      -0.65413003      -1.84043503
Cu       1.42210738       0.19926460       4.40581701      -1.30250917      -0.11880739      -1.39696188      -0.68051316       0.49859121      -0.23276830
Cu       1.42252879       2.40925297       4.73253933       0.51764918       1.36843185      -0.52763803       0.19773286       0.82529936       1.54973688
Cu       3.05419988      -0.36838315       2.64003303       0.50509111      -2.45835085       0.65306312       0.26706978      -1.98671462      -0.91835181
Cu      -0.41814132       1.87428427       1.16651487      -0.91781790       1.74209278      -3.85905753      -1.43877326       1.88020492      -1.34281666
Cu      -0.48782960      -1.06233759       7.61825917      -1.23738613      -1.00893209       3.31340150      -0.06667660      -0.43646682      -0.45446103
Cu      -0.32199065       1.64152309       3.51123340       0.30724597       2.71743414       2.82642232       0.11940157       1.38899901       1.49558964