12
Lattice="5.511844448136533 0.008133916128498852 -0.029525971640663153 -0.6540466794081219 5.711825375672417 -0.02004377987272392 -0.16996925516446595 -2.243791988357196 7.5489882454418975" Properties=species:S:1:pos:R:3:forces:R:3:REF_forces:R:3 config_type=buildcell_minim_mid buildcell_config_i=22 RSS_min_vol_per_atom=10.0 buildcell_type=narrow_even gap_rss_group=ALL gap_rss_iter=1 buildcell_symmetry="1 P1 P 1 @ 0.01" minim_pressure_GPa=0.24578124445279217 minim_config_type=minim_mid virial="6.064408324991987 0.7501939369881029 -2.7391719341564156 0.750193936988078 2.031227535767912 -2.524733246124976 -2.739171934156421 -2.524733246125005 7.6987817387810615" energy=-22.818889389076215 stress="-0.025546959562576625 -0.003160271067721995 0.011539050619077722 -0.003160271067721995 -0.008556760187932031 0.010635705033125971 0.011539050619077722 0.010635705033125971 -0.03243192991329504" free_energy=-22.818889389076215 E_per_atom_dist_to_nearby=0.027555944754199535 vasp_rundir=run_iter_1/run_VASP_42ls73me REF_energy=-21.86805391 REF_stress="-0.004542940625588238 -0.0070244180721976 -0.005691261719601794 0.00014888988323951958 0.0030837093587928106 -0.006251707945281734" pbc="T T T"
Li      -0.31090947      -0.99544374       3.87539345      -0.14657845      -0.43975896      -0.22716720      -0.09301699      -0.11786292       0.23888085
Li       2.07604158       3.17067506       3.41262214      -0.01531694       0.42427692       0.28142893      -0.30030215       0.32600007       0.21428226
Li       0.64794899       2.30358025       5.88160219       0.07520865       0.16225369       0.03173839       0.23096503       0.20571931       0.10570400
Li       4.09600347      -2.20005912       6.75182223      -0.02086965       0.02490497      -0.22616207       0.18893915      -0.22869870      -0.36533343
Li       4.88801542       3.77425090       1.41155389       0.19577477       0.20148771      -0.08049370      -0.07862008       0.04186361      -0.27053835
Li       0.62013255       1.08672366       1.73248836       0.27119778       0.19314005       0.04435526      -0.16216730      -0.10911918      -0.05106714
Li       1.40374983      -0.57766408       6.74489127      -0.51854699       0.45581031       0.53706919      -0.24641181       0.03250056      -0.13756569
Li       4.06720866       0.51173516       6.10740492       0.26087092      -0.06386746      -0.03136840      -0.04884325       0.00885639       0.45175702
Li       1.89282489       4.57305380       1.01207186       0.07502115      -0.11771801      -0.14367880       0.16490479      -0.17084069       0.05549677
Li       4.38817548       1.74352855       3.79423200      -0.17440156      -0.36243241       0.07752688       0.30675111       0.21283452      -0.11749219
Li       2.05165174       0.42888443       4.21389358      -0.12339559      -0.60068912      -0.03702588      -0.05832738      -0.26638688      -0.24149350
Li       3.25213166       1.54914497       1.28922022       0.12103591       0.12259231      -0.22622260       0.09612889       0.06513390       0.11736941
12
Lattice="5.515976456081502 0.014609899480259415 -0.032698213892487914 -0.6477888626422577 5.712065607590693 -0.02157674726867472 -0.17701086377344685 -2.2468405905385076 7.574530626431272" Properties=species:S:1:pos:R:3:forces:R:3:REF_forces:R:3 config_type=buildcell_minim_mid buildcell_config_i=22 RSS_min_vol_per_atom=10.0 buildcell_type=narrow_even gap_rss_group=ALL gap_rss_iter=1 buildcell_symmetry="1 P1 P 1 @ 0.01" minim_pressure_GPa=0.24578124445279217 minim_config_type=minim_mid virial="5.203211184839235 0.7034922176430976 -2.618973656811159 0.703492217643145 1.9288765102717835 -2.217277539869091 -2.618973656811157 -2.21727753986909 7.191984091230287" energy=-22.93039378082428 stress="-0.021827463303094947 -0.002951148823126823 0.010986590656243788 -0.002951148823126823 -0.008091634136787406 0.009301476033739837 0.010986590656243788 0.009301476033739837 -0.03017036273391661" free_energy=-22.93039378082428 E_per_atom_dist_to_nearby=0.02694045423334157 vasp_rundir=run_iter_1/run_VASP_0xv69vrr REF_energy=-21.9009926 REF_stress="-0.0036793118458166934 -0.006591831020931098 -0.005115932009984801 3.654333064151526e-05 0.0027734484652392703 -0.0061236043284048905" pbc="T T T"
Li      -0.31929917      -1.01935501       3.87280078      -0.11767040      -0.42435519      -0.19306010      -0.07880777      -0.07013653       0.25413895
Li       2.08195280       3.19736941       3.43716019       0.02144782       0.40225549       0.23606725      -0.30614769       0.26494744       0.18996515
Li       0.64308817       2.31641094       5.89706644       0.05326173       0.15586852       0.03380234       0.23912622       0.20244867       0.11009872
Li       4.08158238      -2.19090518       6.75525558      -0.00707649       0.04071089      -0.21738194       0.17643017      -0.23423654      -0.35447454
Li       4.90638715       3.77936927       1.39976439       0.15730403       0.13837641      -0.10569940      -0.09713596       0.03148814      -0.27061200
Li       0.62711926       1.07399530       1.73841841       0.26603104       0.17803286       0.01879517      -0.15053539      -0.08993672      -0.02455671
Li       1.37572997      -0.56686800       6.78946485      -0.51990640       0.41760725       0.50768377      -0.20469465       0.04276892      -0.16279426
Li       4.07682922       0.52330185       6.12467403       0.22717560      -0.03157997      -0.00590490      -0.08094342      -0.00497795       0.43972593
Li       1.89776440       4.56617253       1.02153176       0.11223589      -0.07320121      -0.15098916       0.18912055      -0.16187793       0.03190960
Li       4.38687675       1.75342313       3.80920203      -0.18561807      -0.30852857       0.08486626       0.30872832       0.18149593      -0.13105426
Li       2.05212254       0.41589965       4.22071148      -0.12011083      -0.57756780      -0.01769192      -0.06827799      -0.23892721      -0.21065725
Li       3.27644869       1.54134907       1.29143344       0.11292608       0.08238131      -0.19048737       0.07313761       0.07694378       0.12831067
18
Lattice="5.533771655034192 0.0 0.0 0.0 7.802568497413125 -0.0063739836738977195 0.0 -1.3198069322739274 8.434740028642247" Properties=species:S:1:pos:R:3:forces:R:3:REF_forces:R:3 config_type=buildcell_minim_mid buildcell_config_i=25 RSS_min_vol_per_atom=10.0 buildcell_type=narrow_even gap_rss_group=ALL gap_rss_iter=1 buildcell_symmetry="6 Pm P -2y @ 0.01" minim_pressure_GPa=0.21841622993331195 minim_config_type=minim_mid virial="0.4359679018865601 -4.084281056928216e-16 7.561407375040176e-16 2.0384898196529333e-15 -13.030049275193136 -0.8524466179118033 3.382710778154774e-17 -0.8524466179117275 -0.7479602744029387" energy=-31.060151571688277 stress="-0.0011972352806417204 -5.59800829546508e-18 -9.289446930126743e-20 -5.59800829546508e-18 0.03578253039559886 0.0023409502429222176 -9.289446930126743e-20 0.0023409502429222176 0.0020540145849238865" free_energy=-31.060151571688277 E_per_atom_dist_to_nearby=0.2647643605952943 vasp_rundir=run_iter_1/run_VASP_qs4nupp3 REF_energy=-31.31971811 REF_stress="0.006233654829523774 -0.010354113101286368 -0.015349207509794167 0.005213836603001317 8.738112776236562e-11 1.0610565514001539e-10" pbc="T T T"
Li       1.38344291       6.27847918       7.47423805      -0.00000000       0.17146741      -0.06967180      -0.00000045       0.15622951       0.08289590
Li       4.15032874       6.27847918       7.47423805       0.00000000       0.17146741      -0.06967180      -0.00000051       0.15622976       0.08289583
Li       1.38344291       6.36673017       4.30975261       0.00000000       0.64002344      -0.06857837       0.00000056       0.30474143       0.59905762
Li       4.15032874       6.36673017       4.30975261      -0.00000000       0.64002344      -0.06857837       0.00000051       0.30474139       0.59905769
Li       4.15032874       7.08179375       1.99635246       0.00000000      -0.13318303      -0.30087528       0.00000000       0.19106962      -0.48377259
Li       1.38344291       7.08179375       1.99635246      -0.00000000      -0.13318303      -0.30087528      -0.00000001       0.19106965      -0.48377277
Li       4.15032874       3.98399470       3.20313026       0.00000000       0.22937587      -0.12047662      -0.00000013       0.28958427      -0.56979173
Li       1.38344291       3.98399470       3.20313026      -0.00000000       0.22937587      -0.12047662      -0.00000010       0.28958439      -0.56979179
Li       1.38344291       4.24173025       5.82608859      -0.00000000      -0.41046167       0.11191653      -0.00000004      -0.51160148      -0.00636357
Li       4.15032874       4.24173025       5.82608859       0.00000000      -0.41046167       0.11191653      -0.00000009      -0.51160145      -0.00636395
Li       4.15032874       0.84291094       9.13687334       0.00000000      -0.10260764       0.26558531       0.00000026       0.00876043       0.27648564
Li       1.38344291       0.84291094       9.13687334      -0.00000000      -0.10260764       0.26558531       0.00000020       0.00876045       0.27648574
Li       1.38344291       1.50702908       3.58083983      -0.00000000      -0.08838175       0.14781224      -0.00000024      -0.23235998       0.22305081
Li       4.15032874       1.50702908       3.58083983       0.00000000      -0.08838175       0.14781224      -0.00000022      -0.23236032       0.22305057
Li       4.15032874       0.79017363       6.50125377      -0.00000000      -0.19030667       0.23675848      -0.00000005       0.48455315      -0.41493786
Li       1.38344291       0.79017363       6.50125377       0.00000000      -0.19030667       0.23675848      -0.00000004       0.48455314      -0.41493767
Li       4.15032874       3.97238226       8.45204633       0.00000000      -0.11592596      -0.20247049       0.00000020      -0.69097700       0.29337606
Li       1.38344291       3.97238226       8.45204633      -0.00000000      -0.11592596      -0.20247049       0.00000015      -0.69097697       0.29337607
18
Lattice="4.764696826659362 2.160261524429593e-49 -1.3303310205219078e-46 4.235664659323962e-49 9.244281892150914 1.4388767205495823e-15 8.287038634779137e-47 -4.622140946075457 8.005782958347167" Properties=species:S:1:pos:R:3:forces:R:3:REF_forces:R:3 config_type=buildcell_minim_mid buildcell_config_i=36 RSS_min_vol_per_atom=10.0 buildcell_type=wide_even gap_rss_group=ALL gap_rss_iter=1 buildcell_symmetry="145 P3_2 P 32 @ 0.01" minim_pressure_GPa=0.35640010175548775 minim_config_type=minim_mid virial="17.149167385440677 9.396330935551589e-12 1.1906864383348648e-11 9.362954855873795e-12 5.153960246629927 1.2556400363905595e-11 1.191846621395598e-11 1.255351378404157e-11 5.1539602466358065" energy=-33.91523483516003 stress="-0.048632968034223095 -2.655220944418365e-14 -3.3799331091279946e-14 -2.655220944418365e-14 -0.014616008946114142 -3.560024932142118e-14 -3.3799331091279946e-14 -3.560024932142118e-14 -0.014616008946130816" free_energy=-33.91523483516003 E_per_atom_dist_to_nearby=0.019016244308012187 vasp_rundir=run_iter_1/run_VASP_svmzca84 REF_energy=-32.38194635 REF_stress="-0.010077855337782745 -0.0036760847296967375 -0.0036760208041602704 8.067774696116699e-08 -5.835811032700847e-09 -2.1739176285451387e-08" pbc="T T T"
Li       1.61263669       2.24172395       1.54676966      -0.02931191       0.03631461      -0.00214133      -0.24122567       0.03087014       0.03756206
Li       3.20086896       4.84082171       5.29100824      -0.02931191      -0.02001175      -0.03037871      -0.24122593       0.01709340      -0.04551783
Li       0.02440441       6.78387856       1.16800426      -0.02931191      -0.01630286       0.03252004      -0.24122636      -0.04796196       0.00795852
Li       0.56107352      -0.16423363       2.64493322      -0.19816151       0.46912353       0.17680950      -0.25924440       0.21887799      -0.12138675
Li       2.14930579      -2.24944384       6.82554684      -0.19816151      -0.08144024      -0.49467764      -0.25924470      -0.21456729      -0.12886118
Li       3.73753807       2.41367886       6.54108505      -0.19816151      -0.38768328       0.31786814      -0.25924598      -0.00431568       0.25024615
Li       4.06906986      -0.39019183       6.65497716       0.21782995      -0.39356340       0.11462555       0.24342828      -0.08820334      -0.13792306
Li       0.89260531       1.33633517       5.01621042       0.21782995       0.29605034       0.28352312       0.24342860      -0.07534253       0.14534412
Li       2.48083758      -0.94614196       4.34037754       0.21782995       0.09751306      -0.39814868       0.24342829       0.16354364      -0.00742790
Li       4.01657691       3.75580716       1.50663750       0.09223208      -0.06244908      -0.27287631       0.03934899       0.08512768       0.01674294
Li       0.84011235       4.04902464       3.99983979       0.09223208      -0.20509327       0.19052065       0.03934908      -0.02806569      -0.08209498
Li       2.42834463       6.06159242       2.49930486       0.09223208       0.26754236       0.08235566       0.03934896      -0.05706191       0.06535987
Li       2.96005573      -0.02889876       1.17616513      -0.11144377      -0.40669359       0.15245644       0.08068934      -0.20946595       0.19745867
Li       4.54828800      -3.58910176       7.44272745      -0.11144377       0.33537794       0.27597876       0.08068929       0.27573647       0.08267209
Li       1.37182345       3.61800190       7.39267253      -0.11144377       0.07131565      -0.42843520       0.08068988      -0.06626678      -0.28013142
Li       3.20775871       2.31724658       3.78234624       0.02885516      -0.42136289      -0.14862992       0.13700409      -0.28196758      -0.09952603
Li       4.79599099       6.73912651       4.10781543       0.02885516       0.08196416       0.43922593       0.13700386       0.05479301       0.29395420
Li       1.61952644       4.81005113       0.11562048       0.02885516       0.33939873      -0.29059601       0.13700439       0.22717639      -0.19442946
8
Lattice="3.548332081840397 -3.606092852235252e-20 -0.004622349707789426 -5.094720512490839e-20 3.9936853863491724 1.0363216976449872e-17 -0.0629069555304476 2.547441812120266e-17 10.222851303987918" Properties=species:S:1:pos:R:3:forces:R:3:REF_forces:R:3 config_type=buildcell_minim_mid buildcell_config_i=61 RSS_min_vol_per_atom=9.0 buildcell_type=narrow gap_rss_group=ALL gap_rss_iter=1 buildcell_symmetry="3 P2 P 2y @ 0.01" minim_pressure_GPa=0.03547381132301654 minim_config_type=minim_mid virial="-26.79672963247341 -5.067057884389214e-13 -1.0621145969264152 -5.060396546241464e-13 -17.18518438364393 2.2652990594451694e-12 -1.062114596926444 2.2670754162845697e-12 -38.40227261305543" energy=-13.257014577216982 stress="0.18497588974035603 3.493155196243398e-15 0.007331700370428907 3.493155196243398e-15 0.11862808690894686 -1.564945789980039e-14 0.007331700370428907 -1.564945789980039e-14 0.26508811493337303" free_energy=-13.257014577216982 E_per_atom_dist_to_nearby=0.29636905284698356 vasp_rundir=run_iter_1/run_VASP_k9qwygbc REF_energy=-12.68114583 REF_stress="0.2546665155469981 0.2878166615424376 0.29167670032325066 -7.539743024066976e-09 0.0016435994607667667 -1.3244482365124275e-08" pbc="T T T"
Li       0.74196612       3.46917081       1.23988899      -0.10876853       2.14631933       1.29246937       0.03444179      -1.29890352      -0.79858186
Li       2.74345900       3.46917081       8.97833996       0.10876853       2.14631933      -1.29246937      -0.03449122      -1.29890323       0.79857728
Li       0.98159317       0.85525490       8.50037642      -0.59040302      -2.19757051      -2.47352604      -0.16359679       1.19465423       0.29387947
Li       2.50383195       0.85525490       1.71785253       0.59040302      -2.19757051       2.47352604       0.16354775       1.19465447      -0.29388209
Li       0.89172584       2.93769927       6.53997353       0.68846569       0.71846528       4.46524167      -0.21551688      -1.24453088      -0.57447073
Li       2.59369928       2.93769927       3.67825542      -0.68846569       0.71846528      -4.46524167       0.21546564      -1.24452988       0.57446851
Cu       2.61613359       4.25731146       6.86235172      -0.27758502      -0.66721410       1.56505124       0.34170640       1.34878056      -0.76843864
Cu       0.86929153       4.25731146       3.35587723       0.27758502      -0.66721410      -1.56505124      -0.34155669       1.34877825       0.76844806
20
Lattice="5.887762667411296 -4.634691221565659e-80 2.011803519145284e-48 4.634691221565653e-80 5.887762667411296 2.7981134930233803e-48 -5.760139097024815e-47 -1.1412386123759881e-48 10.251307674165002" Properties=species:S:1:pos:R:3:forces:R:3:REF_forces:R:3 config_type=buildcell_minim_mid buildcell_config_i=65 RSS_min_vol_per_atom=9.0 buildcell_type=narrow gap_rss_group=ALL gap_rss_iter=1 buildcell_symmetry="75 P4 P 4 @ 0.01" minim_pressure_GPa=0.8570685376745232 minim_config_type=minim_mid virial="-66.1930587962425 3.477773624638303e-12 -2.333994109093851e-12 3.4271474547153957e-12 -66.19305879624439 1.7248980022088745e-12 -2.3350765765428605e-12 1.712741060089229e-12 -35.06009752719473" energy=-29.28784431996157 stress="0.18626557230457963 -9.643905171231995e-15 6.57084568706265e-15 -9.643905171231995e-15 0.18626557230458493 -4.819609481246428e-15 6.57084568706265e-15 -4.819609481246428e-15 0.0986582165821896" free_energy=-29.28784431996157 E_per_atom_dist_to_nearby=0.4891036590010276 vasp_rundir=run_iter_1/run_VASP_pp0bjh9c REF_energy=-33.59233998 REF_stress="0.2970763495677143 0.29707633931291483 0.295041118403018 -1.6227923727296472e-10 2.871094197906299e-10 1.504203699337865e-09" pbc="T T T"
Li       4.53025388       1.37061987       5.18604036      -0.37366325       1.03563265       0.01679663       0.12642729      -0.18718581      -0.22817883
Li       1.35750879       4.51714280       5.18604036       0.37366325      -1.03563265       0.01679663      -0.12641134       0.18719029      -0.22817883
Li       4.51714280       4.53025388       5.18604036      -1.03563265      -0.37366325       0.01679663       0.18719227       0.12641144      -0.22817887
Li       1.37061987       1.35750879       5.18604036       1.03563265       0.37366325       0.01679663      -0.18718402      -0.12642597      -0.22817894
Li       0.66903899       4.11463022       2.34455550      -0.39906294       0.45905881      -3.88208933       0.05460207      -0.11379661       0.73534246
Li       5.21872368       1.77313244       2.34455550       0.39906294      -0.45905881      -3.88208933      -0.05460198       0.11379727       0.73534228
Li       1.77313244       0.66903899       2.34455550      -0.45905881      -0.39906294      -3.88208933       0.11379673       0.05460283       0.73534286
Li       4.11463022       5.21872368       2.34455550       0.45905881       0.39906294      -3.88208933      -0.11379644      -0.05460168       0.73534258
Li       4.34114003       1.53872118       8.64199262      -0.38305287      -0.18786571       1.33619937       0.36408783       0.04597027       0.03144279
Li       1.54662264       4.34904148       8.64199262       0.38305287       0.18786571       1.33619937      -0.36408537      -0.04596765       0.03144265
Li       4.34904148       4.34114003       8.64199262       0.18786571      -0.38305287       1.33619937      -0.04596719       0.36408509       0.03144265
Li       1.53872118       1.54662264       8.64199262      -0.18786571       0.38305287       1.33619937       0.04596958      -0.36408675       0.03144240
Li       2.94388133       0.00000000       6.79393040       0.00000000      -0.00000000      -1.65009289      -0.00000512      -0.00000259       0.15161124
Li      -0.00000000       2.94388133       6.79393040       0.00000000      -0.00000000      -1.65009289      -0.00000669       0.00000806       0.15161107
Li       2.94388133       2.94388133       1.91199881       0.00000000       0.00000000       2.13629235       0.00001538      -0.00000003      -0.05164335
Cu       4.95482926       3.71434003       0.63337673      -4.11968411      -0.14492123       1.36451196       0.14356995      -0.29596481      -0.46720143
Cu       0.93293340       2.17342264       0.63337673       4.11968411       0.14492123       1.36451196      -0.14360846       0.29596623      -0.46720105
Cu       2.17342264       4.95482926       0.63337673       0.14492123      -4.11968411       1.36451196       0.29598459       0.14353140      -0.46720155
Cu       3.71434003       0.93293340       0.63337673      -0.14492123       4.11968411       1.36451196      -0.29602401      -0.14353029      -0.46720179
Cu       2.94388133       2.94388133       4.51395861       0.00000000       0.00000000       5.82221888       0.00004493      -0.00000068      -0.53719835
8
Lattice="4.779550409404883 -2.6326852076265104e-50 -1.1412762780922793e-50 2.718485549776063e-50 5.218146322774943 3.342312926610945e-15 -1.7418714769756206e-50 -3.3576460107911253e-15 5.2181463227749445" Properties=species:S:1:pos:R:3:forces:R:3:REF_forces:R:3 config_type=buildcell_minim_mid buildcell_config_i=67 RSS_min_vol_per_atom=9.0 buildcell_type=narrow gap_rss_group=ALL gap_rss_iter=1 buildcell_symmetry="84 P4_2/m -P 4c @ 0.01" minim_pressure_GPa=0.009486077250391849 minim_config_type=minim_mid virial="-48.23337480396917 -3.817464976740151e-16 1.1965545666250792e-15 4.163336342344337e-16 -51.30340574459585 1.297184581972033e-12 -4.0245584642661925e-16 1.478706046498246e-12 -51.30340574459178" energy=-20.966825886578214 stress="0.370619356174571 -3.1990567548072033e-18 3.0924215296469633e-18 -3.1990567548072033e-18 0.394209098656315 -1.1362196511273904e-14 3.0924215296469633e-18 -1.1362196511273904e-14 0.3942090986562837" free_energy=-20.966825886578214 E_per_atom_dist_to_nearby=0.07241016849204529 vasp_rundir=run_iter_1/run_VASP_7fxc6g45 REF_energy=-14.28206175 REF_stress="0.3184260046593735 0.33912935090682855 0.3391329580372317 1.9991553730204074e-07 -2.4916104430525965e-08 4.499503928849241e-08" pbc="T T T"
Li      -0.00000000       2.36334900       4.06152924      -0.00000000      -0.48285861       4.93943587      -0.00000029       0.06782375      -0.59799526
Li       0.00000000       2.85479732       1.15661708       0.00000000       0.48285861      -4.93943587       0.00000136      -0.06783172       0.59799448
Li       2.38977520       1.15661708       2.36334900      -0.00000000      -4.93943587      -0.48285861       0.00000019       0.59796713       0.06783510
Li       2.38977520       4.06152924       2.85479732      -0.00000000       4.93943587       0.48285861      -0.00000102      -0.59796237      -0.06783492
Li      -0.00000000      -0.00000000       2.60907316       0.00000000       0.00000000      -0.00000000       0.00000018       0.00000701       0.00000166
Li       2.38977520       2.60907316       0.00000000       0.00000000       0.00000000       0.00000000      -0.00000016      -0.00000343      -0.00000104
Cu       0.00000000       0.00000000      -0.00000000       0.00000000       0.00000000       0.00000000       0.00000221      -0.00000108      -0.00000011
Cu       2.38977520       0.00000000      -0.00000000      -0.00000000       0.00000000       0.00000000      -0.00000247       0.00000072       0.00000010
20
Lattice="5.908424280440216 0.00805249621893008 -0.0010331340789395541 -0.32715651288634306 6.006239919341656 -0.005340559102906803 -0.35843838804455347 -2.8204733119769863 8.294340355497413" Properties=species:S:1:pos:R:3:forces:R:3:REF_forces:R:3 config_type=buildcell_minim_mid buildcell_config_i=76 RSS_min_vol_per_atom=9.0 buildcell_type=wide gap_rss_group=ALL gap_rss_iter=1 buildcell_symmetry="1 P1 P 1 @ 0.01" minim_pressure_GPa=0.38330989754503936 minim_config_type=minim_mid virial="-79.04050465309584 2.575516631552265 0.9778897007434413 2.575516631552217 -57.45062059264317 1.5050896161034835 0.9778897007434866 1.5050896161035117 -65.49830915305401" energy=-46.939298224628054 stress="0.2685945849385574 -0.008752092660468917 -0.0033230541662109606 -0.008752092660468917 0.19522807527949076 -0.005114579195906255 -0.0033230541662109606 -0.005114579195906255 0.2225756431889482" free_energy=-46.939298224628054 E_per_atom_dist_to_nearby=0.08860666372223758 vasp_rundir=run_iter_1/run_VASP_j25ekqmz REF_energy=-32.404404 REF_stress="0.34032544693339717 0.32548406448448414 0.2832007163938265 0.006596883678606229 -0.005541320841123586 -0.002808597136908116" pbc="T T T"
Li       2.56306605       2.57773858       3.77790398      -1.06885305      -0.12640199       0.10355005       0.36662679       0.16979891       0.03876878
Li       4.60960445       1.02662402       3.33449613      -0.55955935       0.71312948      -0.06744217       0.17762732      -0.09073537      -0.23350948
Li       0.44919991      -1.21954015       1.55015224      -0.46867979      -0.46721798      -0.69829604       0.34163080       0.53844273      -0.02424202
Li       2.80105393       3.03382544       6.67375138       0.15987030       0.03068130       0.05998883      -0.12900523      -0.25962892      -0.21292097
Li       0.11276832       2.27656397      -0.35772328       2.06140805      -0.37703996       0.02280017      -0.72081862      -0.21166417      -0.66267922
Li       1.05782694       0.71521659       6.13378339      -0.80085912      -0.68305348       0.81551243       0.43787635      -0.15879031      -0.28473177
Li       5.04978679       2.27372906       7.22088851      -0.04491067       0.79832149       0.34304819       0.19947353      -0.52095758       0.28741064
Li       1.97886043       0.78362809       0.19638321      -0.62532197       0.63207024      -0.94740540      -0.03336443      -0.32434761      -0.02699107
Li       1.43734237       0.40454443       3.38777149      -0.44678979       0.71327567      -0.43559562       0.09199142      -0.81039889       0.41444765
Li       0.56083932       3.10697099       5.37555282       0.30411458       0.50053334       1.60739431      -0.29279981      -0.01547437      -0.52841790
Li       4.39424280       0.36588406       0.61828320      -1.09913356      -0.19272604      -0.66437758       0.14694061       0.50714321       0.71090141
Li       5.24951071      -0.99299688       5.25240306       1.09123816      -1.54347082      -0.12151018      -0.10729350      -0.09252691      -0.23278306
Li       3.04369044       4.72325858       2.58792243      -0.36069474       0.22703047       1.05048269      -0.42238358       0.43748393      -0.10058549
Li       2.15005161       3.42093978       0.41462397      -0.67460160      -0.35037926       0.02345222       0.84783271       0.84546849      -0.39750551
Li       0.81589682       2.31164716       2.02320554       1.21533187       1.16280771      -0.82105023      -0.30460556      -0.08028029       0.42016893
Cu       2.45666125       4.68771915       5.09668335       1.56943385      -1.90067060       2.63384471      -0.88973894      -0.40524365      -2.38406432
Cu       3.36852902      -0.31737742       6.83102052       0.36022633       1.66306871      -3.93631217      -0.49790282      -4.08499545       7.67003511
Cu       4.89584545       3.51206694       3.14762710      -0.97875303       0.44755357      -3.56973631       1.29045983       0.90870496       5.17706807
Cu       4.44851322       3.08461600       1.26439264       0.13889974      -0.36385201       1.09181813      -1.61112973      -1.37773596      -4.74600820
Cu       3.67044199       1.05537947       5.53284666       0.22763378      -0.88365984       3.50983397       1.10858284       5.02573726      -4.88436159
20
Lattice="5.886042540267281 0.00822824221790088 -0.0043553510626773645 -0.3257074863989916 5.991722493651925 -0.007248253359495701 -0.3618983749156991 -2.8166163405547313 8.262891241456693" Properties=species:S:1:pos:R:3:forces:R:3:REF_forces:R:3 config_type=buildcell_minim_mid buildcell_config_i=76 RSS_min_vol_per_atom=9.0 buildcell_type=wide gap_rss_group=ALL gap_rss_iter=1 buildcell_symmetry="1 P1 P 1 @ 0.01" minim_pressure_GPa=0.38330989754503936 minim_config_type=minim_mid virial="-77.49356860489476 1.6690242354852336 0.9187344752595807 1.6690242354851377 -56.89669732548148 1.6312828475613217 0.9187344752595381 1.6312828475613808 -62.616884893959494" energy=-48.11603141363921 stress="0.26602634617473847 -0.005729564750166281 -0.003153907865621547 -0.005729564750166281 0.19531969905889465 -0.005600002985110513 -0.003153907865621547 -0.005600002985110513 0.21495643312175533" free_energy=-48.11603141363921 E_per_atom_dist_to_nearby=0.0553482374941181 vasp_rundir=run_iter_1/run_VASP_r0ogkz7b REF_energy=-31.68320202 REF_stress="0.33987862127091656 0.3220860743757022 0.2772893423061988 0.0025289177094450837 -0.005476143307857711 -0.003769500622836701" pbc="T T T"
Li       2.55709068       2.59452261       3.75605854      -1.07365950      -0.15277531       0.01464973       0.33018571       0.08452838       0.03454685
Li       4.61509526       1.02696872       3.34400884      -0.31404816       0.63398217       0.00986346       0.16727170      -0.10593789      -0.29021035
Li       0.43070133      -1.25879459       1.56811737      -0.86643531      -0.68443345      -0.42877211       0.49979976       0.76814006      -0.14799231
Li       2.77493552       3.03164360       6.62838907       0.02532196       0.05558405      -0.32981048      -0.08789689      -0.27579655      -0.18311861
Li       0.10084787       2.26115635      -0.34125033       1.92552182      -0.34434281      -0.15994055      -0.75412028      -0.23610648      -0.72499349
Li       1.00614229       0.69524671       6.12217615      -0.74994756      -0.62318909       0.66295778       0.47095187      -0.13348207      -0.32937109