24
Lattice="5.2460197245199645 9.092360299234817e-05 0.0003085987761196362 -0.890511412719414 8.102259239407566 -0.0005642093093216928 -2.0464952741927878 -0.9555108087495184 8.52491750126357" Properties=species:S:1:pos:R:3:minim_forces:R:3:REF_forces:R:3 config_type=buildcell_minim_mid buildcell_config_i=1 RSS_min_vol_per_atom=8.0 buildcell_type=narrow gap_rss_group=ALL gap_rss_iter=1 buildcell_symmetry="1 P1 P 1 @ 0.01" minim_pressure_GPa=0.18146658963275542 minim_config_type=minim_mid minim_energy=-64.63204161174778 minim_stress="0.5990754166961436 0.651302456889872 0.6976884706760974 0.0314080999532927 -0.02558212118082631 -0.004791147447569377" E_per_atom_dist_to_nearby=0.23266165687977525 vasp_rundir=run_iter_1/run_VASP_h4m3zcl1 REF_energy=-41.8999082 REF_stress="0.7197330167720296 0.7187420966703449 0.7125982822854583 -0.0048595088949134665 -0.0066664028930011965 -0.0021700467756569576" pbc="T T T"
Li       3.17515777       4.12366592       2.39991068       0.04303374      -0.88157327      -1.29839058       0.25639684      -0.50263309      -0.02999950
Li      -1.05617991       6.41985623       1.43539781      -0.33454601      -2.39611764      -0.76724026       0.32573572       0.27482578       0.16421805
Li       1.64721451       8.12049165       4.82813434      -0.02900791       3.68550986       3.61288988       0.17415046      -0.15071004       0.65505244
Li       1.16587330       5.77682864       6.92341361       1.75529913       0.41012196       0.36561880      -0.15112697       0.21347200      -0.38291035
Li       2.49276973       3.21412567       6.19358103       1.00917118      -1.02109220      -0.37951138       0.02857790      -0.34710024      -0.22182434
Li       3.60617307       0.41986227       2.34273594       0.21111302       0.48406467       0.07849521      -0.04087473       0.14628523      -0.43316100
Li       1.24331697       6.31324975       2.83293021      -0.66622401      -0.68077158      -1.74168575       0.06385176       0.18270410      -0.10749783
Li      -1.29845294       1.61304379       7.78469570      -0.33908393       2.05898066      -0.77784133       0.18220572       0.11709734       0.12527067
Li       1.31383986       1.05858266       8.15622439      -1.05573138      -2.48421696      -1.97596807      -0.13840993       0.13336400       0.24083057
Li      -1.46886960       5.28435611       7.35789433       0.26157837      -0.33616070       2.18064167      -0.41073333      -0.06393210       0.30741347
Li      -0.91792045       4.95112533       4.71781441      -2.69066988       0.71039289      -1.29665623      -0.23150747       0.73351200      -0.04214912
Li       4.05926414       2.31585143       4.19804309      -0.30020051      -0.79536932       0.01285754       0.54260649       0.07262774       0.06228433
Cu       0.77045190       4.13273609       1.70245249      -1.86743676      -1.88241943      -2.09656199       0.28961616       0.24278619       1.54490819
Cu       1.78464011       1.84004382       3.29776110       0.19166870       1.41079041       1.11028750      -0.11392272       0.40066263       0.82822481
Cu       0.18003601      -0.03316509       3.97510151      -0.91014658       0.53868734      -2.38095078      -0.16779847      -0.61478997      -0.57857373
Cu      -1.82506217       7.60366587       6.49731877      -0.74323022      -0.08147152       1.28093959       0.39150030      -0.86869171      -0.88046310
Cu       1.41194330       4.22442683       4.18515077      -0.65806688       3.39240032       3.32917212       0.01332503      -0.47811669       0.04709667
Cu       0.35179706       1.28914042       5.86356764      -2.23529898      -1.65672917      -1.73857219       0.93634707       0.39193887      -0.43297905
Cu       4.34208078       4.26549335       0.17629509       1.28566312       0.72856873       5.16903805       0.16580303      -0.10934158      -0.77154287
Cu       2.14036484      -0.03299976       0.36817920       1.73719010      -3.09561347      -1.54857459       0.86694723      -0.56221450       0.32547613
Cu       0.23046753       1.91031532       1.61504076       2.68635252      -1.43430510       0.18625945      -0.75518182      -0.64230839      -0.39408211
Cu       3.11391893      -0.65282087       8.44857225       2.05327457      -0.34885285       1.59276701      -1.49936095      -0.32492655       0.34850866
Cu       2.28652809       5.26757371       0.36189637       3.70814321       5.11350934      -0.40413781      -0.77467972       1.11915115      -0.07245072
Cu       0.04521998       3.40669709       6.71415188      -3.11284461      -1.43833295      -2.51287586       0.04653242       0.63633784      -0.30165027
18
Lattice="6.53967261431126 0.0010575692832185972 0.001232181584833718 -0.8600240070028559 6.482875729813446 0.0012321815848354407 -0.860024007002854 -0.9818104397960268 6.40809858747376" Properties=species:S:1:pos:R:3:minim_forces:R:3:REF_forces:R:3 config_type=buildcell_minim_mid buildcell_config_i=2 RSS_min_vol_per_atom=8.0 buildcell_type=narrow gap_rss_group=ALL gap_rss_iter=1 buildcell_symmetry="146 R3 R 3 @ 0.01" minim_pressure_GPa=0.13827628193202385 minim_config_type=minim_mid minim_energy=-44.08287768219178 minim_stress="0.5527188006655512 0.5418798690429802 0.5252289703079529 -0.05426979144088856 -0.04753801915561111 -0.040801412277794824" E_per_atom_dist_to_nearby=0.47661463058083386 vasp_rundir=run_iter_1/run_VASP_oxcb85eg REF_energy=-30.33184744 REF_stress="0.7238930292659529 0.7242163756331852 0.7247131597515319 0.0016190465809598213 0.0014182112886314813 0.0012172509601508224" pbc="T T T"
Li       1.77395174       2.20672771       4.52777479       3.75921686       1.14616580       0.38987291      -0.22815696       0.08230477       0.11479697
Li       3.87117664       2.30372264       2.86777787      -0.28524815       3.75434484       1.19203048       0.13015058      -0.21286526       0.09875513
Li       1.95394084       4.16470920       2.71193822       0.64121453      -0.20258380       3.89168499       0.11163965       0.14612639      -0.19543952
Li      -0.24417687       5.26135558       1.27123312      -0.05316628       0.47377263       0.00255671       0.02716629       0.04791006      -0.21231066
Li       0.48688643      -0.18165051       5.39327946      -0.06170937      -0.06182980       0.46868190      -0.21880022      -0.00164940       0.01517180
Li       5.24769935       1.18819062       0.63825786       0.47664820       0.00105966       0.00995356       0.04391860      -0.21489175       0.00065477
Li       6.61873785       0.82226413       2.92828966       0.99114840      -1.82727655      -0.26623502      -0.19591793       0.21290074       0.12481207
Li       1.87414806       6.92580299       1.25678606      -0.11670283       0.98435228      -1.84651749       0.11609924      -0.18224054       0.22936879
Li      -0.05637753       1.88311982       7.03628955      -1.94187134      -0.37565772       0.69297387       0.23685198       0.14860910      -0.14530116
Cu       3.98035992      -0.97615075       4.87479851       0.36758282       4.09537649      -5.08443017       0.22144764       0.93625332       0.71788198
Cu       4.39911823       4.59963319      -0.22567493      -5.64587594      -0.37910479       3.27704446       0.53351728       0.29424634       1.03431273
Cu      -1.49174226       4.23961316       4.51222574       4.01132177      -5.16265654       0.12219233       0.89895073       0.65762475       0.44769608
Cu       4.90082339       2.02330977       5.12133213       1.49024309      -3.54849394      -0.51418210       0.36607814      -1.42908242      -0.22860150
Cu       4.06862073       5.48428236       2.77648471      -0.16664055       1.48119739      -3.58542915      -0.05739457       0.36167542      -1.44722249
Cu       1.36040763       4.28505107       5.84187670      -3.71381867      -0.66139373       0.92039456      -1.46483648      -0.25245180       0.13804297
Cu       3.30529561       2.73310571       0.47792054       1.55469787      -1.04301913      -0.02089319      -0.39028355      -0.39364114       0.09983762
Cu      -0.37774897       3.28415045       2.77397107      -0.06839652       1.55926757      -1.03412643       0.20839053      -0.36603878      -0.37394498
Cu       2.27410549      -0.07900757       3.66680461      -1.23864390      -0.23352066       1.38442779      -0.33882094       0.16521023      -0.41851060
18
Lattice="6.496533428103004 0.004400436822582223 0.005126980618725383 -0.8510301484302514 6.440552276999759 0.005126980618726426 -0.8510301484302504 -0.9715429772964569 6.366855123368443" Properties=species:S:1:pos:R:3:minim_forces:R:3:REF_forces:R:3 config_type=buildcell_minim_mid buildcell_config_i=2 RSS_min_vol_per_atom=8.0 buildcell_type=narrow gap_rss_group=ALL gap_rss_iter=1 buildcell_symmetry="146 R3 R 3 @ 0.01" minim_pressure_GPa=0.13827628193202385 minim_config_type=minim_mid minim_energy=-50.1154346193462 minim_stress="0.5681822762207632 0.5579717117331342 0.5422861182418972 -0.051123600049605575 -0.04478208988713492 -0.03843602540874055" E_per_atom_dist_to_nearby=0.37665037035935134 vasp_rundir=run_iter_1/run_VASP_pzlbi5yf REF_energy=-31.04783495 REF_stress="0.7209915552214254 0.7215566512465741 0.7224246695798496 0.0028292047151060266 0.002478253501176042 0.0021270643172276154" pbc="T T T"
Li       1.81775756       2.21370740       4.51347338       4.09060379       1.18010633       1.00051666      -0.32813823      -0.02241168       0.10275633
Li       3.85034665       2.34514644       2.87250826       0.26434439       4.16164213       1.31817327       0.14724886      -0.31144855      -0.00656552
Li       1.95509190       4.14384916       2.75360032       0.63122616       0.35050895       4.31340016       0.02099849       0.15134084      -0.30885374
Li      -0.24773499       5.22618064       1.26248968      -0.93661018      -0.02649153      -0.56419769       0.08501351       0.08449717      -0.30234254
Li       0.48407513      -0.18561329       5.35718546      -0.42551378      -1.00135523      -0.11173710      -0.32013952       0.04324440       0.03768134
Li       5.21329915       1.18078542       0.62886780       0.09706167      -0.41635869      -1.00671939       0.07256852      -0.31331130       0.04845352
Li       6.59061007       0.79430332       2.91031822       1.42887892      -2.07255579      -0.29531405      -0.24543705       0.37355756       0.12975220
Li       1.86444555       6.89613944       1.22642349      -0.16596190       1.41938442      -2.09336987       0.10329580      -0.23387292       0.38891531
Li      -0.08039134       1.87014245       7.00236499      -2.24265068      -0.46530058       1.08554419       0.40262596       0.15768836      -0.17218624
Cu       3.96883737      -0.91376210       4.78483693       1.12000061       2.68994885      -5.23113140       0.48294617      -0.03079359       1.63999896
Cu       4.30311032       4.57525714      -0.17764899      -5.67743239       0.37572978       1.86562334       1.54795055       0.69277115       0.21823332
Cu      -1.42837961       4.15117822       4.49541396       2.51906004      -5.39270048       0.65427815      -0.09410878       1.54904465       0.71785444
Cu       4.89540425       1.97717102       5.08524166       1.99952418      -2.12353282      -0.25906541      -0.05883461      -1.41075354       0.08746241
Cu       4.04090702       5.47513454       2.72540691      -0.19791808       1.99079690      -2.13826088       0.30551404      -0.01878133      -1.38117620
Cu       1.31538410       4.25111369       5.82508950      -2.36832020      -0.51422953       1.64354219      -1.39073749       0.12346246      -0.22801123
Cu       3.31132964       2.69976488       0.47289354       2.05477233      -1.18396622      -0.66774172      -0.58405395      -0.58958487       0.19934447
Cu      -0.37845747       3.29014337       2.74025350      -0.74685672       1.97361727      -1.27152832       0.36084400      -0.54126005      -0.55254846
Cu       2.24026044      -0.08421778       3.66761548      -1.44420818      -0.94524375       1.75798787      -0.50755627       0.29661123      -0.61876836
18
Lattice="6.411265911080817 0.009019362672119561 0.010508524375563972 -0.8352243446741582 6.356635291217641 0.010508524375562692 -0.8352243446741597 -0.9534989424663367 6.28472453026811" Properties=species:S:1:pos:R:3:minim_forces:R:3:REF_forces:R:3 config_type=buildcell_minim_mid buildcell_config_i=2 RSS_min_vol_per_atom=8.0 buildcell_type=narrow gap_rss_group=ALL gap_rss_iter=1 buildcell_symmetry="146 R3 R 3 @ 0.01" minim_pressure_GPa=0.13827628193202385 minim_config_type=minim_mid minim_energy=-59.69589546145515 minim_stress="0.6096707373257566 0.6038987010458411 0.5950316286314681 -0.028900192012278864 -0.025315333724415842 -0.021727900879899047" E_per_atom_dist_to_nearby=0.34300127567367866 vasp_rundir=run_iter_1/run_VASP__siy4oyx REF_energy=-30.001392 REF_stress="0.74634605190589 0.7474321989182781 0.7491007881145585 0.005438332002154254 0.004763746699904411 0.004088667120063871" pbc="T T T"
Li       1.89114286       2.23378738       4.50168199       3.59280954       1.26735340       1.94345763      -0.51319440      -0.30698691      -0.05373702
Li       3.82611220       2.41595732       2.89056807       1.24069680       3.78916033       1.54739395       0.06106754      -0.50958034      -0.31157986
Li       1.96533449       4.12076234       2.82633087       0.78325772       1.35563006       3.97998330      -0.23675299       0.03014874      -0.55093346
Li      -0.23681404       5.14579882       1.18242533      -1.41575382      -0.99255146      -2.39786201       0.17540644       0.17849886      -0.28868201
Li       0.41627020      -0.18360265       5.26559259      -2.01389382      -1.69568436      -1.34467309      -0.33278224       0.13275131       0.13266974
Li       5.13217920       1.10161017       0.61696654      -0.79749911      -2.13750949      -1.87997549       0.15385099      -0.31527132       0.15132279
Li       6.52628755       0.74089886       2.87040675       1.35207227      -2.14879599      -0.26031449      -0.29379717       0.60626552       0.08862125
Li       1.84183580       6.82824884       1.16758460      -0.11009518       1.34932371      -2.16342132       0.03441241      -0.29183012       0.61269251
Li      -0.12486157       1.84142735       6.92633743      -2.30811404      -0.41763840       1.00567140       0.63967447       0.11968761      -0.19551889
Cu       3.90149252      -0.83044360       4.68910043       1.88679594       1.76372222      -3.83104847       1.28109816      -0.45163129       2.23035121
Cu       4.20564798       4.49437535      -0.10981091      -4.26732566       1.33655772       1.16240806       2.08458142       1.56924711      -0.10819668
Cu      -1.33691928       4.06500815       4.42575404       1.49993419      -4.10557501       1.49736389      -0.61638036       2.02102803       1.53469462
Cu       4.84657792       1.91400416       5.01052534       1.73559177       0.20846332      -0.07144515      -0.29357371      -1.59337510       0.25913790
Cu       3.98362146       5.41827040       2.65164090      -0.32986291       1.70702082       0.19521922       0.53205712      -0.22548538      -1.53565342
Cu       1.25919611       4.18586182       5.75769742      -0.02187530      -0.33566561       1.71688387      -1.54083860       0.33206102      -0.45575103
Cu       3.32029483       2.65072644       0.46377195       1.77434936      -1.69960075      -0.71900659      -0.91587802      -0.92098921       0.32086390
Cu      -0.38120435       3.29882245       2.69039897      -0.68265728       1.69925873      -1.78897390       0.57342984      -0.84776759      -0.86169982
Cu       2.19046851      -0.09360241       3.66863452      -1.91843044      -0.94346926       1.40833918      -0.79238090       0.47322906      -0.96860172
18
Lattice="6.397235625880028 0.010534660276880443 0.012274008522805796 -0.8318748855702871 6.342926675191288 0.012274008522805554 -0.8318748855702874 -0.949675172560993 6.271442140748784" Properties=species:S:1:pos:R:3:minim_forces:R:3:REF_forces:R:3 config_type=buildcell_minim_mid buildcell_config_i=2 RSS_min_vol_per_atom=8.0 buildcell_type=narrow gap_rss_group=ALL gap_rss_iter=1 buildcell_symmetry="146 R3 R 3 @ 0.01" minim_pressure_GPa=0.13827628193202385 minim_config_type=minim_mid minim_energy=-60.8289202383758 minim_stress="0.615287232086779 0.6098210687655176 0.601423882114585 -0.027368706968214723 -0.023973818243551215 -0.020576491393680698" E_per_atom_dist_to_nearby=0.33399533970797 vasp_rundir=run_iter_1/run_VASP_q8q_bivc REF_energy=-29.02143008 REF_stress="0.7561248211667826 0.7565053939838392 0.7570901094439437 0.0019056898037093117 0.0016693167440332184 0.0014327576187285731" pbc="T T T"
Li       1.89868248       2.23787660       4.49046205       3.35758189       1.18498844       1.95127752      -0.51361712      -0.37844437      -0.03168171
Li       3.81351115       2.42188941       2.89290868       1.29171180       3.55864282       1.46716718       0.09347056      -0.50570263      -0.37886774
Li       1.96839537       4.10845718       2.83254928       0.73258205       1.40036210       3.73996620      -0.30753195       0.05343845      -0.55730372
Li      -0.22055625       5.13438748       1.18275904      -1.24132651      -0.95519512      -2.45311962       0.10419932       0.20965296      -0.29648164
Li       0.41617181      -0.16721514       5.25436381      -2.09661882      -1.53071308      -1.31612768      -0.33573176       0.06052723       0.16228022
Li       5.11872657       1.09972407       0.63146189      -0.78343468      -2.21909292      -1.71258337       0.19410900      -0.31289920       0.08442432
Li       6.52450027       0.72554893       2.86023066       1.30954670      -2.32453841      -0.37577471      -0.30834436       0.66778444       0.09470452
Li       1.83440760       6.82545921       1.15086912      -0.19121077       1.29565044      -2.35463933       0.03304807      -0.30668907       0.67442108
Li      -0.13984252       1.83194406       6.92104541      -2.47672710      -0.52186250       0.92362351       0.70257081       0.12666814      -0.20084092
Cu       3.88705577      -0.83311424       4.68442008       1.92808096       1.88413855      -3.45411385       1.34859738      -0.51798651       2.32582024
Cu       4.20336434       4.47950847      -0.11316037      -3.92152970       1.42413584       1.33858831       2.17921327       1.64990416      -0.15931118
Cu      -1.33766580       4.06260530       4.41055118       1.61386619      -3.74160895       1.61064433      -0.69104635       2.10656938       1.60666869
Cu       4.83505105       1.91194345       4.98871319       1.64833566       0.24919376      -0.07701058      -0.31813327      -1.59358561       0.28461112
Cu       3.96407673       5.40404626       2.64629653      -0.32994954       1.61898685       0.23463477       0.56028183      -0.24651714      -1.53200368
Cu       1.25867107       4.16607569       5.74282737       0.02998946      -0.32886403       1.63584464      -1.53781990       0.36093542      -0.47597432
Cu       3.32624735       2.64342821       0.47138469       1.67774947      -1.63893637      -0.74351617      -1.00002639      -0.89345544       0.29064201
Cu      -0.37343188       3.30585963       2.68433948      -0.70307205       1.59909883      -1.73272751       0.55076087      -0.93566031      -0.83905683
Cu       2.18245005      -0.08682674       3.67467150      -1.84557500      -0.95438627       1.31786637      -0.75400002       0.45546007      -1.05205046
14
Lattice="7.196455170105372 -2.117672194747155e-15 -2.869378391367378e-17 3.5982275850526864 6.232312994507115 -2.942909174846637e-17 3.598227585052686 2.077437664835704 5.901632413462412" Properties=species:S:1:pos:R:3:minim_forces:R:3:REF_forces:R:3 config_type=buildcell_minim_mid buildcell_config_i=30 RSS_min_vol_per_atom=10.0 buildcell_type=wide_even gap_rss_group=ALL gap_rss_iter=1 buildcell_symmetry="146 R3 R 3 @ 0.01" minim_pressure_GPa=0.0035290065855197606 minim_config_type=minim_mid minim_energy=-27.058265786884892 minim_stress="-0.006627374130864846 -0.006627374130864844 -0.0006169322841186734 8.673617379884035e-19 2.6020852139652106e-18 -1.3777058635047167e-19" E_per_atom_dist_to_nearby=0.003707484468505884 vasp_rundir=run_iter_1/run_VASP_gq_3q62y REF_energy=-25.38015688 REF_stress="-0.012682153631635369 -0.01268185728478207 -0.012697142166412519 -1.4608252109129767e-07 -2.1006423114072697e-07 -2.934695175899049e-07" pbc="T T T"
Li       8.98074454       3.99820742       7.01025250       0.06456148      -0.05026947       0.07324762      -0.06532337      -0.06384221       0.13065858
Li       6.43998888       5.77844921       7.01025250       0.01125390       0.08104662       0.07324762       0.08795212      -0.02465026       0.13066125
Li       6.16863209       2.68796937       7.01025250      -0.07581538      -0.03077715       0.07324762      -0.02262305       0.08849130       0.13065801
Li       6.60709826       6.70069042       4.02208782      -0.05643239      -0.08800059      -0.03762857       0.05497449       0.02019285       0.03218329
Li       5.28639309       2.37156974       4.02208782       0.10442694      -0.00487159      -0.03762857      -0.04497336       0.03750950       0.03218420
Li       9.69587416       3.39236585       4.02208782      -0.04799455       0.09287218      -0.03762857      -0.00999689      -0.05770217       0.03218418
Li      11.76430246       7.68020626       5.72476347       0.08091651       0.16989129      -0.03312744       0.08683978      -0.08340288      -0.14956511
Li       9.05596055       6.34808166       5.72476347      -0.18758843      -0.01486989      -0.03312744       0.02880838       0.11691012      -0.14956529
Li      11.56378525       4.66865107       5.72476347       0.10667192      -0.15502140      -0.03312744      -0.11565406      -0.03350691      -0.14956829
Li       5.49820565      -0.17952691       2.84502544      -0.04195202      -0.21213322      -0.04532311       0.08716510      -0.24138877      -0.04439065
Li       4.60282721       4.85134923       2.84502544       0.20468876       0.06973510      -0.04532311       0.16546399       0.19618176      -0.04438968
Li       0.69364989       1.56049068       2.84502544      -0.16273675       0.14239812      -0.04532311      -0.25263441       0.04520663      -0.04438859
Li       7.19645517       4.15487533       2.04024530      -0.00000000      -0.00000000       0.14177194       0.00000134       0.00000168       0.14907544
Li       7.19645517       4.15487533       4.79298163       0.00000000       0.00000000      -0.01327744      -0.00000005      -0.00000064      -0.05573735
12
Lattice="3.9985079026467805 -0.010205527899144497 0.07546181334736801 1.0423158475818817 8.491323040812166 -0.005362450428679136 0.8482232548293752 3.880442343835467 8.280534942332705" Properties=species:S:1:pos:R:3:minim_forces:R:3:REF_forces:R:3 config_type=buildcell_minim_mid buildcell_config_i=32 RSS_min_vol_per_atom=10.0 buildcell_type=wide_even gap_rss_group=ALL gap_rss_iter=1 buildcell_symmetry="1 P1 P 1 @ 0.01" minim_pressure_GPa=0.7958816142318074 minim_config_type=minim_mid minim_energy=-22.890767507666048 minim_stress="-0.017026463671805388 -0.010386572699566927 -0.03383166440891058 0.005613398221378207 -0.0144932630142445 -0.0013086534610417025" E_per_atom_dist_to_nearby=0.022622111244803955 vasp_rundir=run_iter_1/run_VASP_m9z__nww REF_energy=-20.63616019 REF_stress="0.003091760786976527 0.002742340097189864 -0.0063925776141246764 0.005947339104999628 -0.006966189679154754 0.0032979269772153205" pbc="T T T"
Li       2.32904939       7.63639376       2.77924196       0.11092255      -0.18273266      -0.10727052       0.03478441      -0.28283852      -0.24597298
Li       2.17391056       1.94306157       3.39215139       0.26579583      -0.09040423       0.13042220      -0.18773191       0.06832761      -0.13767756
Li       4.05063172       1.00762771       1.51880885       0.57518121      -0.19982116      -0.01720517       0.09696541       0.20369685      -0.10847095
Li       2.17318253       5.59873295       5.14298523      -0.13105690      -0.01080916      -0.05151365      -0.44484144       0.13606260       0.11183282
Li       5.09176098       9.92188513       5.06619110       0.00576753       0.18805018      -0.02072059      -0.00715069       0.06462674       0.11300625
Li       5.09956556      11.13759434       8.13251640      -0.04448956       0.03263675       0.09514892      -0.31495779      -0.40058139       0.48242622
Li       4.01551760       5.44771272       7.13600998      -0.50802035       0.12327300       0.20149866       0.09975312      -0.00069648       0.06255273
Li       2.22927714       8.30007795       6.74844317       0.02833874       0.16137515      -0.00947237       0.02292080      -0.01714290      -0.02766399
Li       4.10370595       7.31775411       4.71321065      -0.06672081       0.06357149      -0.35767101       0.20346728       0.33869197       0.07927244
Li       1.96729347       3.17493843       6.39468967      -0.07355337       0.01805268       0.11885129       0.16783682      -0.03246568      -0.14246772
Li       2.15295784       3.29687695       0.82969659      -0.04560442      -0.04634073      -0.06240803      -0.02065737       0.21353237       0.32943692
Li       3.96952648       4.27140813       4.06948353      -0.11656044      -0.05685132       0.08034026       0.34961135      -0.29121318      -0.51627417
20
Lattice="5.778213223614281 0.0399532367241838 5.3801814188529855e-08 -2.164490838869815 7.537552860594379 -5.336361958308106e-08 -1.8068612864544635 -3.788753004373754 10.071367524102845" Properties=species:S:1:pos:R:3:minim_forces:R:3:REF_forces:R:3 config_type=buildcell_minim_mid buildcell_config_i=39 RSS_min_vol_per_atom=10.0 buildcell_type=wide_even gap_rss_group=ALL gap_rss_iter=1 buildcell_symmetry="9 Cc C -2yc @ 0.01" minim_pressure_GPa=0.18134773710568777 minim_config_type=minim_mid minim_energy=-36.59117667521382 minim_stress="-0.013888046510353708 -0.014252229541161388 -0.021952383234560124 -1.1510505396050696e-10 1.1357686839630343e-10 -0.008697282148309296" E_per_atom_dist_to_nearby=0.08162455288683312 vasp_rundir=run_iter_1/run_VASP_05gjo1ay REF_energy=-34.95926906 REF_stress="-0.00012022672625432434 -0.0016658659384677 -0.0024146355337954515 -0.0007140853418699443 -0.0006552503802457183 -0.005863206127242973" pbc="T T T"
Li       0.85010626       2.53777563       4.34334856      -0.06937047       0.04886799       0.28493965      -0.14677409       0.00226524       0.46587435
Li       1.93235166      -1.23100079       5.72801900      -0.06937046       0.04886799      -0.28493965      -0.12633083       0.03027895      -0.45546351
Li       0.81428351       0.81627372       2.30439992       0.14706482      -0.33035235       0.03162535       0.00978433      -0.15427940       0.05686932
Li       1.89652888      -2.95250269       7.76696765       0.14706482      -0.33035235      -0.03162535       0.02139630      -0.14615069      -0.06810128
Li      -1.19915760      -2.33537895       6.59317832       0.19688667       0.26108465       0.03056954       0.03210878      -0.05463913      -0.05915674
Li       3.49681023       1.47335071       3.47818924       0.19688667       0.26108464      -0.03056954       0.06089814      -0.07942313       0.05746752
Li       0.01337874       0.91568822       6.77796168      -0.03900966       0.30340466       0.01899281       0.14648709       0.65167027      -0.17013310
Li      -1.06886664       4.68446463       3.29340582      -0.03900966       0.30340466      -0.01899281       0.17545533       0.67541995       0.15883301
Li       0.75392620       4.84136382       0.58118680      -0.32656352       0.19493591      -0.01240321      -0.09616214       0.00286000      -0.22069613
Li       1.83617153       1.07258743       9.49018074      -0.32656352       0.19493591       0.01240320      -0.11692483      -0.00289813       0.18814817
Li      -2.22359246       3.10226577       8.87347461       0.01714803       0.15467864      -0.20095226       0.01118668      -0.21758218      -0.16205784
Li       4.63686626      -0.62655745       1.19789293       0.01714802       0.15467864       0.20095226      -0.00025141      -0.20145060       0.21716165
Li       3.08920214       0.75210337       7.06999971       0.31564194      -0.41325153       0.21175602       0.07227853      -0.01460549      -0.04610092
Li       2.00695676       4.52087978       3.00136785       0.31564194      -0.41325153      -0.21175601       0.05763006       0.00221083       0.04271649
Li       4.64022886       3.07302008       1.47311150      -0.09970258      -0.14757692       0.13192312      -0.06808765      -0.40793520      -0.22397235
Li      -0.05573901      -0.73570956       8.59825607      -0.09970258      -0.14757692      -0.13192312      -0.06858416      -0.39803940       0.20891693
Li      -1.78144131       3.28584802       5.58419175       0.09813354      -0.18336823      -0.42760790      -0.01600114      -0.19642241       0.00523155
Li      -0.69919588      -0.48292842       4.48717574       0.09813353      -0.18336823       0.42760791      -0.03704309      -0.16447807       0.00542406
Li       2.72022640       1.18602094       0.45503880      -0.24022877       0.11157718       0.25947740       0.05168363       0.33405076       0.13578038
Li      -1.97574149      -2.62270868       9.61632875      -0.24022877       0.11157718      -0.25947741       0.03725047       0.33914782      -0.13674155
24