8
Lattice="5.28741908289567 -0.005363233323343537 -0.007951289594185678 -1.4460737728475608 5.085833261710749 -0.007951289594187344 -1.4460737728475626 -1.9125420572245126 4.712530749849493" Properties=species:S:1:pos:R:3:minim_forces:R:3:REF_forces:R:3 config_type=buildcell_minim_mid buildcell_config_i=5 RSS_min_vol_per_atom=8.0 buildcell_type=narrow gap_rss_group=ALL gap_rss_iter=1 buildcell_symmetry="146 R3 R 3 @ 0.01" minim_pressure_GPa=0.28948009715078593 minim_config_type=minim_mid minim_energy=-15.058444907066887 minim_stress="0.8247702216794466 0.8260249546013806 0.8295343861200509 0.004343118811128122 0.003283833775790109 0.0022149824284495682" E_per_atom_dist_to_nearby=0.2502854545025748 vasp_rundir=run_iter_1/run_VASP_iie2mh7o REF_energy=-13.46465144 REF_stress="0.6855365001216724 0.6815030524816906 0.6702213351632998 -0.013961714938038872 -0.0105564297221831 -0.007120439701774982" pbc="T T T"
Li       3.07158722      -0.59659694       3.74598267      -0.54755474      -1.98863749       3.08037013       0.65710917       0.39031367      -0.51545022
Li      -1.41107713       2.42704743       3.99265127      -1.76415110       3.25643777       0.16297035       0.19647358      -0.75459616       0.49174049
Li       2.71972881       3.96274712       0.85010149       3.61394623       0.45451124      -0.68991854      -0.77956979       0.46215449       0.16881704
Li       1.44197923       1.90712672       2.82742069      -0.50997696      -0.67448314      -0.99995850      -0.04623649      -0.06116133      -0.09066849
Cu      -1.12628188       2.24573966       1.52563589       0.60269156       1.24287750      -0.62099611       0.39001415      -0.47054560       0.22790653
Cu       2.46767172       1.59122865       0.13420127       1.03159174      -0.91988368       0.61907209      -0.55902961       0.11876981       0.31440325
Cu       0.85851861      -0.92742280       2.65372476      -1.16619355       0.29609033       0.91975045       0.26663144       0.48089066      -0.35090690
Cu       0.50829667       0.67226084       0.99666383      -1.26035319      -1.66691253      -2.47128988      -0.12539245      -0.16582553      -0.24584172
8
Lattice="5.265439518706989 -0.02476196226463967 -0.03671097657257132 -1.4587484636600843 5.0593991144903585 -0.03671097657257169 -1.4587484636600843 -1.9293052955159682 4.6772479271683665" Properties=species:S:1:pos:R:3:minim_forces:R:3:REF_forces:R:3 config_type=buildcell_minim_mid buildcell_config_i=5 RSS_min_vol_per_atom=8.0 buildcell_type=narrow gap_rss_group=ALL gap_rss_iter=1 buildcell_symmetry="146 R3 R 3 @ 0.01" minim_pressure_GPa=0.28948009715078593 minim_config_type=minim_mid minim_energy=-18.11257363019132 minim_stress="0.797880544329622 0.7884318756113772 0.7620043744040388 -0.03270551854740019 -0.024728654943886662 -0.01667975297157649" E_per_atom_dist_to_nearby=0.23833461884934337 vasp_rundir=run_iter_1/run_VASP_dkej6luq REF_energy=-13.30394242 REF_stress="0.6923803292773651 0.6855943365167347 0.6666143829553002 -0.02348887853650548 -0.017759944721819774 -0.011979232115131362" pbc="T T T"
Li       3.02119424      -0.68613086       3.68550222      -0.97239322      -1.45399050       3.38660769       0.64349474       0.51915115      -0.61965528
Li      -1.48348930       2.39827389       3.90241703      -1.13396418       3.63891913       0.03378434       0.32413981      -0.85944873       0.47311922
Li       2.71177789       3.90811978       0.74443079       3.81021412       0.06855089      -0.07948418      -0.91525885       0.40958056       0.24923544
Li       1.40584309       1.85933394       2.75656526      -1.10423995      -1.46044094      -2.16518435      -0.04688538      -0.06200124      -0.09191882
Cu      -1.07499275       2.28003096       1.51332498      -0.52137483       2.65505652      -1.23118866       0.68320186      -0.54449426       0.03853290
Cu       2.48668795       1.55782761       0.18400871       2.69664862      -1.22466728      -0.25545769      -0.71006992      -0.15493382       0.48634283
Cu       0.82119952      -0.88468623       2.68090745      -1.91319827      -1.08377452       2.00052182       0.04442872       0.72267555      -0.49040001
Cu       0.47364720       0.62643429       0.92872344      -0.86169230      -1.13965331      -1.68959897      -0.02305100      -0.03052921      -0.04525630
18
Lattice="7.836513281245494 -1.0100160968695963e-13 -1.0212554326614986e-16 3.9182566406228343 6.786619578652691 8.701719396793638e-17 3.918256640622777 2.262206526217531 6.831631589059319" Properties=species:S:1:pos:R:3:minim_forces:R:3:REF_forces:R:3 config_type=buildcell_minim_mid buildcell_config_i=25 RSS_min_vol_per_atom=10.0 buildcell_type=narrow_even gap_rss_group=ALL gap_rss_iter=1 buildcell_symmetry="146 R3 R 3 @ 0.01" minim_pressure_GPa=0.31075263526058133 minim_config_type=minim_mid minim_energy=-31.45156638799223 minim_stress="-0.025762995624433346 -0.025762995624433332 -0.005154258220828708 -4.3796132706628825e-17 4.165156773944886e-17 7.723595922266182e-18" E_per_atom_dist_to_nearby=0.026462219929017428 vasp_rundir=run_iter_1/run_VASP_ol5x0ioa REF_energy=-30.98789445 REF_stress="-0.012394211575802819 -0.012393886212173594 -0.007665289788005875 -4.820941648832229e-08 -1.5365347166099404e-07 -1.2692732958396194e-07" pbc="T T T"
Li       5.13817222       1.34898346      -0.39611153       0.01743090       0.16695122      -0.07025880      -0.01732667       0.19676894      -0.03560049
Li       2.51742487       1.66234085      -0.39611153       0.13586855      -0.09857122      -0.07025880       0.17908644      -0.08338183      -0.03559727
Li       4.09917401       3.77529594      -0.39611153      -0.15329945      -0.06838001      -0.07025880      -0.16176667      -0.11340713      -0.03560955
Li       4.57948570       5.11145007       4.76203979      -0.25321621       0.04164877       0.00533184      -0.12722314       0.23768732       0.37424575
Li       9.97341643       7.05156385       4.76203979       0.16267700       0.19846729       0.00533184       0.26945542      -0.00866548       0.37425177
Li       8.95663889       1.41022592       4.76203979       0.09053921      -0.24011606       0.00533184      -0.14223613      -0.22900845       0.37425571
Li       6.57381488       8.15868689       7.35487497       0.02049925      -0.11978779       0.18882008       0.02553461      -0.09009495       0.15189323
Li      11.61523634       3.80080571       7.35487497      -0.11398890       0.04214102       0.18882008      -0.09080011       0.02292223       0.15190064
Li       5.32048980       1.61374724       7.35487497       0.09348965       0.07764677       0.18882008       0.06523290       0.06716260       0.15189050
Li      13.07615397       5.92519577       8.00756859       0.03417639       0.02008998      -0.50710710       0.15663764      -0.04013176       0.00858732
Li      10.34806339       6.07298001       8.00756859       0.00031024      -0.03964261      -0.50710710      -0.11309339      -0.11556346       0.00857047
Li      11.84009358       8.36168363       8.00756859      -0.03448663       0.01955263      -0.50710710      -0.04354408       0.15570195       0.00856731
Li       9.42332668       4.44781900       3.98466589      -0.00273314       0.03509652       0.13800008      -0.00378688       0.02685908      -0.21575384
Li       6.97677458       3.18849004       3.98466589       0.03176105      -0.01518129       0.13800008       0.02517083      -0.01015098      -0.21575294
Li       7.10943976       5.93693079       3.98466589      -0.02902791      -0.01991523       0.13800008      -0.02134876      -0.01670119      -0.21575411
Li       2.41062641       1.46453822       2.55422163      -0.64720473       0.33919121       0.24521391       0.00334920       0.03699312      -0.28336237
Li       3.98127113       3.96668744       2.55422163       0.61735057       0.39090014       0.24521391       0.03037068      -0.02137309      -0.28336040
Li       5.36287356       1.35539460       2.55422163       0.02985416      -0.73009135       0.24521391      -0.03371189      -0.01561691      -0.28337173
18
Lattice="7.431199604451027 -0.0035502498212429384 -0.004629844575413977 -1.5342625983310567 7.271091970593505 -0.004629844575413947 -1.5342625983310545 -1.8908659584491665 7.020927702766082" Properties=species:S:1:pos:R:3:minim_forces:R:3:REF_forces:R:3 config_type=buildcell_minim_mid buildcell_config_i=32 RSS_min_vol_per_atom=10.0 buildcell_type=wide_even gap_rss_group=ALL gap_rss_iter=1 buildcell_symmetry="161 R3c R 3 -2\"c @ 0.01" minim_pressure_GPa=0.056115227057230654 minim_config_type=minim_mid minim_energy=-31.762970264221753 minim_stress="-0.03339854612786874 -0.032359244653369854 -0.03022766299433202 0.003967420380163784 0.003219194186632967 0.002468537204538339" E_per_atom_dist_to_nearby=0.030404052692808214 vasp_rundir=run_iter_1/run_VASP_av47tqpm REF_energy=-31.45366882 REF_stress="-0.00329666377690786 -0.00308672481285529 -0.002656577991928716 0.0008011200159437503 0.0006500250699451475 0.000498498286413143" pbc="T T T"
Li      -0.05475557       0.14210945       2.28698410       0.40685435       0.20532451       0.49785035      -0.06846326       0.08061122       0.35252348
Li       0.15034100       2.21498374       0.56985452       0.11711105       0.36654125       0.55450527       0.09297629       0.35354123       0.04279687
Li       2.13650971       0.39380012       0.73057326       0.33455581       0.48619856       0.32745527       0.32680112      -0.00117162       0.16930540
Li       2.33167821       2.66403046       5.79281811       0.11711105       0.44042436       0.49785035       0.09298226      -0.05039104       0.35254473
Li       4.31784691       3.29172967       4.07568853       0.33455581       0.19010497       0.55450527       0.32681571       0.16381443       0.04279546
Li       2.12658163       4.86014683       4.23640727       0.40685435       0.42753499       0.32745527      -0.06846989       0.31956331       0.16930991
Li       2.90419205       0.97821480       3.62083638      -0.74861848       0.16843838      -0.67189806      -0.34115086      -0.01792352      -0.16805349
Li       0.35898665       2.70728266       3.87858749       0.31903741      -0.46783964      -0.84828611       0.05273672      -0.07472223      -0.36957607
Li       2.57527041       3.50996223       1.88410169      -0.52352597      -0.87523316      -0.01164459      -0.08399853      -0.36631142      -0.06090302
Li       5.60884905       0.35152513       0.11037252       0.31903741      -0.69786549      -0.67189806       0.05275079      -0.33751747      -0.16804401
Li      -1.14032939       5.49172774       0.36812364      -0.52352597       0.21582251      -0.84828611      -0.08398006       0.03622292      -0.36956363
Li      -0.81140775      -1.33613105       5.39919539      -0.74861848      -0.69259144      -0.01164459      -0.34115097      -0.15764852      -0.06088446
Li       5.03330519       3.00555125       0.70085437       0.12253054      -0.14889069       0.13801918      -0.15993657      -0.18329797       0.26237399
Li       1.90425674      -0.76159065       5.53646838      -0.17093810       0.11014326       0.12198398      -0.14640785       0.30378313      -0.11954940
Li      -1.13752387       4.90416029       3.08446876       0.14299339       0.15531751      -0.10798529       0.32744259      -0.09453505      -0.10895329
Li       5.61985654       0.96173017       4.21131822      -0.17093810       0.08923193       0.13801918      -0.14641165      -0.19427474       0.26237637
Li       2.57807593       6.28573644       2.02137468       0.14299339      -0.14458306       0.12198398       0.32742892      -0.08068609      -0.11955910
Li      -0.21655722       2.58899216       6.59493261       0.12253054       0.17192122      -0.10798529      -0.15996478       0.30094344      -0.10893975
12
Lattice="5.268037784970723 0.00048101135229506844 -0.00015974311516621628 0.34777004990011123 5.685945033475845 -0.014766720500174682 1.1352175182614028 2.3999671620467717 5.190824049333621" Properties=species:S:1:pos:R:3:minim_forces:R:3:REF_forces:R:3 config_type=buildcell_minim_mid buildcell_config_i=56 RSS_min_vol_per_atom=7.0 buildcell_type=wide gap_rss_group=ALL gap_rss_iter=1 buildcell_symmetry="1 P1 P 1 @ 0.01" minim_pressure_GPa=0.1749691164088458 minim_config_type=minim_mid minim_energy=-36.32172590616373 minim_stress="1.397777988017252 1.2530180273669829 1.0493575365307515 0.19310233105525354 -0.08312689282764454 0.01428859594717041" E_per_atom_dist_to_nearby=0.3130733299382431 vasp_rundir=run_iter_1/run_VASP_ll0105qj REF_energy=-18.40506965 REF_stress="1.212594483771661 1.2327286273867966 1.1898823483194345 -0.004516935970758612 -0.014728676166936613 -0.015099526123356102" pbc="T T T"
Li       6.29055626       4.25324597       4.54328203      -0.97389393      -0.25174409       0.73403731       0.08638228       0.55423371      -0.05591897
Li       0.94887920       4.46986981       1.85516720      -0.21792486      -4.30166696       1.40361769      -0.24182099      -0.01878142      -0.30820481
Li       3.39810539       5.72824133       1.71058718      -1.73385079       2.81195432       0.61912778       0.44882058       0.18118506       0.48177948
Cu       2.44755741       2.80617125       2.80147237       0.93723665      -0.97532346      -2.21449348      -1.75191280       0.45684724      -1.19652805
Cu       4.06938704       4.16073282       3.53367014       1.88659143      -3.29114266      -1.76139965       0.69751031       1.42620641       0.60780918
Cu       4.69637600       2.53714559       1.75438111      -1.21485521       1.63632077       5.78854907       0.82304679       0.26521328      -0.75036172
Cu       1.94124322       1.93504350       0.77987278       3.99917100      -2.82073153      -1.96613746      -0.53119505       0.36412459      -0.39388652
Cu       4.86876390       5.21171963      -0.22229275       0.07283874      -0.29392005      -3.37102423       0.90336104       1.60041034       1.73637919
Cu       4.42044946       7.14492770       3.53728178       1.77480870       5.14150011       1.99888962      -0.91523978      -2.16813098      -0.77708776
Cu       1.29983975       6.54165520       3.07861856      -3.63074797      -1.86962992      -0.05374471       1.66459007      -0.59877899      -1.27267748
Cu       3.33540797       3.74108864       0.34959203       1.65593917       3.51196008      -0.21762676      -1.38895363      -1.15205097       0.67192213
Cu       2.59362418       2.35366777       5.02400550      -2.55531294       0.70242338      -0.95979519       0.20541118      -0.91047827       1.25677532
16
Lattice="4.743222398808411 -0.002231403180168195 -0.0012006360357001546 -2.0044117312579077 4.403885952355123 -0.004384827987688363 -0.6575679833194071 -2.5337874979682815 13.748820998964987" Properties=species:S:1:pos:R:3:minim_forces:R:3:REF_forces:R:3 config_type=buildcell_minim_mid buildcell_config_i=64 RSS_min_vol_per_atom=9.0 buildcell_type=narrow gap_rss_group=ALL gap_rss_iter=1 buildcell_symmetry="1 P1 P 1 @ 0.01" minim_pressure_GPa=0.15623256231742966 minim_config_type=minim_mid minim_energy=-34.028302722071395 minim_stress="0.0013494917840348585 0.08356167724893762 0.2772045099496334 0.04242202976122467 0.014557170781796675 0.015468360048182665" E_per_atom_dist_to_nearby=0.20623555290840967 vasp_rundir=run_iter_1/run_VASP_dd0atfnx REF_energy=-28.15462634 REF_stress="0.3042848352927358 0.3086882705559949 0.29619589380416955 -0.011362299520330138 0.005348489672581297 0.0002644324255514689" pbc="T T T"
Li       1.79847510       0.73656982      13.19999682       3.74740438       2.90661497       0.17073567      -0.38740516       0.16817724      -0.33155310
Li       2.19670437       1.61656832       1.64705357       0.00244692      -0.77827446       1.00675367       0.03202506      -0.08262194      -0.12846098
Li       0.05501996      -1.15387121       9.68773343       0.40054879      -0.02194467       0.56037163       0.06030420      -0.11942487      -0.21799806
Li       1.63032982       2.27200482       7.36004465      -0.14006984      -0.51918991      -3.53949241      -0.15333931      -0.00214767      -0.43411302
Li      -0.25951441       2.31035067      12.34074170      -1.89022146      -0.30459258       2.09843653      -0.40161199       0.18186148      -0.00231479
Li       2.72374030       2.65904463       4.05308278      -2.06015332      -2.41519201       1.00622693      -0.34383957      -0.35130539       0.20549825
Li      -0.83116542      -0.49090050      12.07367827       0.46806899      -1.09451525      -1.40549049       0.19331777       0.09019857       0.36797707
Li      -0.26031790       0.86695345       4.83730471      -1.49542234       1.86669301      -4.38250052       0.18536548       0.06116111      -0.29467832
Li       0.52987510       1.72939083       9.84686965      -0.29847758       0.86899625       1.13635401       0.11441867      -0.26751626       0.05950050
Li      -0.70007086       0.90280557       7.55240009      -0.45297364      -0.02187141      -0.04594957      -0.12627692      -0.07258369       0.15717604
Li       4.28724819      -0.04866867       1.88280173       1.43087177       2.99518303      -1.81122729      -0.17185806      -0.10393036       0.11790537
Li       1.11930976      -0.82659321       6.48791130       1.23850812       1.07280666      -1.87981505       0.30392517       0.04258624       0.32043533
Cu       2.16500152      -0.26940828       8.65118114      -0.04310435      -1.32640935      -1.84763011       0.01217010       0.10687176       0.37806445
Cu       0.37583827       3.38082279       4.48143882      -2.07860970      -2.46186105       7.08053195       0.33359253       0.59997699       0.31097223
Cu       1.74185723      -0.57674090       0.70739341       0.02855230       2.34280501      -2.21847225       0.36147476      -0.64734246      -0.02427226
Cu      -0.06298879       2.25200378       2.50462587       1.14263094      -3.10924824       4.07116729      -0.01226274       0.39603925      -0.48413869
24
Lattice="5.469467340010469 4.526344253063815e-16 -1.170626664370671e-46 -2.7347336700052343 4.736697661618365 -1.575176349334377e-47 1.5705066786752837e-46 1.7180882987119677e-46 15.920995664582156" Properties=species:S:1:pos:R:3:minim_forces:R:3:REF_forces:R:3 config_type=buildcell_minim_mid buildcell_config_i=69 RSS_min_vol_per_atom=9.0 buildcell_type=narrow gap_rss_group=ALL gap_rss_iter=1 buildcell_symmetry="164 P-3m1 -P 3 2\" @ 0.01" minim_pressure_GPa=0.3131672396628773 minim_config_type=minim_mid minim_energy=-78.06886355311961 minim_stress="1.063827283312086 1.063827283312087 0.9001278839409895 5.578960318259232e-32 -5.461571364303179e-46 -8.816384194150917e-16" E_per_atom_dist_to_nearby=0.282578081467328 vasp_rundir=run_iter_1/run_VASP_ut1vx0n8 REF_energy=-38.21072511 REF_stress="0.3098061832921735 0.30980974442265435 0.27220287623610295 -5.27532351319653e-07 -3.391323983548668e-07 3.074036867134393e-06" pbc="T T T"
Li       4.55789774       1.57890001       1.03991543      -0.00000000       0.00000000       3.02121851      -0.00003407       0.00000948      -0.23974869
Li       1.82316407       3.15779923       1.03991543       0.00000000       0.00000000       3.02121851      -0.00003569      -0.00001422      -0.23974920
Li       1.82316407       0.00000079       1.03991543       0.00000000       0.00000000       3.02121851      -0.00001448       0.00000346      -0.23974674
Li       3.64631985       0.00000079      14.88108023      -0.00000000      -0.00000000      -3.02121851       0.00001563       0.00000152       0.23978801
Li       0.91158618       1.57890001      14.88108023      -0.00000000       0.00000000      -3.02121851       0.00003577       0.00001231       0.23978826
Li       3.64631985       3.15779923      14.88108023       0.00000000      -0.00000000      -3.02121851       0.00003243      -0.00001115       0.23978841
Li       1.82316407       3.15779923       4.75061466      -0.00000000       0.00000000      -6.03513242       0.00001431      -0.00000696       0.68984109
Li      -0.91156960       4.73669845       4.75061466       0.00000000       0.00000000      -6.03513242       0.00002972       0.00000283       0.68983968
Li      -0.91156960       1.57890001       4.75061466      -0.00000000       0.00000000      -6.03513242       0.00001852       0.00000826       0.68984461
Li       0.91158618       1.57890001      11.17038101       0.00000000      -0.00000000       6.03513242      -0.00001583       0.00000841      -0.68985301
Li      -1.82314749       3.15779923      11.17038101      -0.00000000       0.00000000       6.03513242      -0.00001765      -0.00000787      -0.68986046
Li       0.91158618       4.73669845      11.17038101       0.00000000      -0.00000000       6.03513242      -0.00002918      -0.00000303      -0.68985208
Li       0.91158618       1.57890001       2.92753416      -0.00000000      -0.00000000       8.28258929       0.00003279       0.00000670      -0.19106623
Li       0.91158618       4.73669845       2.92753416      -0.00000000       0.00000000       8.28258929       0.00001616       0.00000147      -0.19106508
Li      -1.82314749       3.15779923       2.92753416      -0.00000000       0.00000000       8.28258929       0.00003319      -0.00000558      -0.19106501
Li       1.82316407       3.15779923      12.99346150       0.00000000      -0.00000000      -8.28258929      -0.00003327      -0.00000784       0.19104185
Li      -0.91156960       1.57890001      12.99346150      -0.00000000       0.00000000      -8.28258929      -0.00003021       0.00000563       0.19104176
Li      -0.91156960       4.73669845      12.99346150      -0.00000000       0.00000000      -8.28258929      -0.00001875       0.00000141       0.19104177
Cu       1.82316407       3.15779923       7.34859118      -0.00000000      -0.00000000       9.49945524      -0.00113833      -0.00193800      -2.56634235
Cu       1.82316407       0.00000079       7.34859118       0.00000000      -0.00000000       9.49945524       0.00217993      -0.00005373      -2.56632925
Cu       4.55789774       1.57890001       7.34859118       0.00000000       0.00000000       9.49945524      -0.00118688       0.00183823      -2.56631581
Cu       0.91158618       1.57890001       8.57240448       0.00000000       0.00000000      -9.49945524       0.00114219       0.00193828       2.56634402
Cu       3.64631985       3.15779923       8.57240448       0.00000000       0.00000000      -9.49945524       0.00118302      -0.00183978       2.56631285
Cu       3.64631985       0.00000079       8.57240448      -0.00000000      -0.00000000      -9.49945524      -0.00217931       0.00005018       2.56632161
6
Lattice="2.535770347620405 -1.1635451396849439e-48 9.712559015628974e-47 -2.7054976091625776e-48 5.55475630170447 1.4132559163427917e-15 -5.728404250763675e-46 -2.7773781508522357 4.810560069107762" Properties=species:S:1:pos:R:3:minim_forces:R:3:REF_forces:R:3 config_type=buildcell_minim_mid buildcell_config_i=82 RSS_min_vol_per_atom=6.0 buildcell_type=narrow_even gap_rss_group=ALL gap_rss_iter=1 buildcell_symmetry="145 P3_2 P 32 @ 0.01" minim_pressure_GPa=0.4415069230618279 minim_config_type=minim_mid minim_energy=-21.101540670413712 minim_stress="1.1721877870677937 0.5937775821986104 0.5937775821986123 1.99080104435366e-16 2.7592025800525265e-30 1.456232754997516e-46" E_per_atom_dist_to_nearby=0.2819320123553255 vasp_rundir=run_iter_1/run_VASP_77ctexpf REF_energy=-6.17010125 REF_stress="1.9598337668116348 1.6921741090356572 1.6921963778289582 1.622329876903419e-05 1.3392468546498966e-06 -6.367275534769806e-07" pbc="T T T"
Cu       1.74011504      -1.16300808       3.33770092      -0.13681735       3.53160599      -2.81644809      -0.76020043      -1.76150511      -2.01485828
Cu       0.04960148       0.69465968       4.14890416      -0.13681735      -4.20491859      -1.65023646      -0.76011901      -0.86408164       2.53294161
Cu       0.89485826       0.46834841       2.13451506      -0.13681735       0.67331260       4.46668455      -0.76019311       2.62550872      -0.51803353
Cu       1.13979434       4.28422416       1.12854826       0.13681735       4.99017944       5.90388838       0.76013722      -2.87065311      -1.50549972
Cu       1.98505112       1.61261753       0.53603899       0.13681735       2.61782760      -7.27356635       0.76017638       0.13164624       3.23885485
Cu       0.29453756       2.43529277       3.14597283       0.13681735      -7.60800704       1.36967798       0.76019894       2.73908489      -1.73340494
6
Lattice="2.503393949753571 -9.311982815999315e-49 9.646792176931818e-46 -2.140440602432048e-48 5.532276447732564 5.76937321992576e-15 7.860225851904011e-46 -2.7661382238662866 4.791091944494725" Properties=species:S:1:pos:R:3:minim_forces:R:3:REF_forces:R:3 config_type=buildcell_minim_mid buildcell_config_i=82 RSS_min_vol_per_atom=6.0 buildcell_type=narrow_even gap_rss_group=ALL gap_rss_iter=1 buildcell_symmetry="145 P3_2 P 32 @ 0.01" minim_pressure_GPa=0.4415069230618279 minim_config_type=minim_mid minim_energy=-22.793132744545666 minim_stress="1.1435067675415607 0.49005682837519443 0.4900568283751953 1.6759858018250449e-16 1.0713386104307751e-46 -1.7050234466919009e-46" E_per_atom_dist_to_nearby=0.327574424570666 vasp_rundir=run_iter_1/run_VASP_fk_2vye_ REF_energy=-6.13773845 REF_stress="1.9124496084333327 1.671099976644972 1.6711206917331647 1.5176759967860843e-05 9.91114200135506e-07 1.981117411646605e-07" pbc="T T T"
Cu       1.73548022      -1.18225750       3.30345786       0.44993770       5.17787740      -2.46501520      -0.72060297      -1.37283190      -2.12736767
Cu       0.06655092       0.68586895       4.16322805       0.44993770      -4.72370449      -3.25166577      -0.72053653      -1.15595332       2.25265524
Cu       0.90101557       0.49638855       2.11549799       0.44993770      -0.45417292       5.71668097      -0.72060415       2.52876526      -0.12517943
Cu       1.10765884       4.27861825       1.14630594      -0.44993770       4.75767503       5.44804111       0.72054746      -2.99222738      -1.78691379
Cu       1.94212349       1.61955916       0.51254688      -0.44993770       2.33930449      -6.84428799       0.72058370      -0.05128830       3.48479285
Cu       0.27319419       2.40023727       3.13223913      -0.44993770      -7.09697952       1.39624688       0.72061248       3.04353563      -1.69798721
18
Lattice="4.299751335500977 8.640966661289141e-16 -2.3748574165005266e-48 -2.1498756677504893 3.7236938864999116 9.433716271661986e-48 -7.13493552336297e-48 8.743756050751236e-47 12.744945739235028" Properties=species:S:1:pos:R:3:minim_forces:R:3:REF_forces:R:3 config_type=buildcell_minim_mid buildcell_config_i=84 RSS_min_vol_per_atom=6.0 buildcell_type=narrow_even gap_rss_group=ALL gap_rss_iter=1 buildcell_symmetry="144 P3_1 P 31 @ 0.01" minim_pressure_GPa=0.3400697093559014 minim_config_type=minim_mid minim_energy=-56.09989401454668 minim_stress="1.380702296333032 1.3807022963330329 1.7430563396009329 2.8368552546194827e-30 -2.0172624653196243e-46 1.3622428389912847e-16" E_per_atom_dist_to_nearby=0.5638467224203376 vasp_rundir=run_iter_1/run_VASP_zsz39ewv REF_energy=-26.18687078 REF_stress="1.7839448711546197 1.78396092319262 1.735076321412017 2.6814147355707066e-07 2.049124895082229e-06 1.793126901680477e-05" pbc="T T T"
Cu       0.47497271       0.69745682       3.93729658       1.14980455       0.65197138       2.47949892      -0.96559754      -1.11040571      -0.03077432
Cu       2.51640464       2.96362705      12.43392708      -0.01027849      -1.32174564       2.47949892      -0.47862806       1.39157848      -0.03078573
Cu       3.45824966       0.06261002       8.18561183      -1.13952605       0.66977425       2.47949892       1.44465221      -0.28128856      -0.03068659
Cu       1.34428391       0.40679811       1.87821108      -0.35022502      -2.01866166      -2.44238972       0.53513225       0.54303932       0.32780447
Cu       1.83003121       2.35611082      10.37484157      -1.57309977       1.31263459      -2.44238972       0.20233636      -0.73493614       0.32782814
Cu       3.27531188       0.96078496       6.12652632       1.92332479       0.70602707      -2.44238972      -0.73800357       0.19236197       0.32777484
Cu       2.41018074       1.96630404       4.36369140       4.47451309       0.02850818       4.02711326      -1.28370013       0.68327601       0.30286935
Cu       2.64765454       0.65326412       0.11537615      -2.21256774      -3.88929610       4.02711326       1.23374900       0.77006549       0.30285435
Cu       1.39179172       1.10412574       8.61200664      -2.26194536       3.86078792       4.02711326       0.05011404      -1.45343369       0.30289772
Cu      -0.40755766       2.53434448       9.01964637      -2.31318026       2.35168005      -0.01741929      -2.28460463       0.32784920      -2.12834381
Cu       0.24870986       2.80947694       4.77133112       3.19320479       0.82743285      -0.01741929       1.42626604       1.81469405      -2.12826573
Cu       0.15884780       2.10356636       0.52301588      -0.88002453      -3.17911289      -0.01741929       0.85826087      -2.14250025      -2.12835218
Cu       1.58823207       3.03304276       1.85153837       1.26028628      -2.30770413       0.04868416      -2.27124746       1.11933398       1.81846047
Cu       3.98245172       0.83172318      10.34816886      -2.62867354       0.06241213       0.04868416       2.10519505       1.40715345       1.81847352
Cu       0.87894322      -0.14107206       6.09985361       1.36838726       2.24529200       0.04868416       0.16598549      -2.52658821       1.81848622
Cu       2.07770195       0.06811149      10.91508590       0.23266284      -1.05854185      -4.09548732      -2.62767865      -1.74580089      -0.29012252