10
Lattice="4.88312117498241 -0.00027364882511006397 -0.004342933099557923 1.8626229668900358 5.694130955504099 -0.0011258996203884172 0.6869237637232551 2.887869034187184 5.975669558998004" Properties=species:S:1:pos:R:3:forces:R:3:REF_forces:R:3 config_type=buildcell_minim_mid buildcell_config_i=3 RSS_min_vol_per_atom=8.0 buildcell_type=narrow gap_rss_group=ALL gap_rss_iter=1 buildcell_symmetry="1 P1 P 1 @ 0.01" minim_pressure_GPa=0.08835013506243485 minim_config_type=minim_mid virial="-65.59876839092313 1.032417747184553 -27.376091675166936 1.0324177471846037 -91.40494973718677 -2.5746635519414096 -27.376091675166972 -2.5746635519414642 -112.95483976955126" energy=-22.742830142498715 stress="0.394776559736214 -0.006213139917738853 0.16475064327642233 -0.006213139917738853 0.5500794067515017 0.015494449735039745 0.16475064327642233 0.015494449735039745 0.6797676868571957" free_energy=-22.742830142498715 E_per_atom_dist_to_nearby=0.19381321580730715 vasp_rundir=run_iter_1/run_VASP_ntn14vlp REF_energy=-17.20726599 REF_stress="0.6740284256867869 0.6600915188688291 0.6833824518006598 -7.728438824564329e-05 0.00821146947171831 0.004449322576209196" pbc="T T T"
Li       2.55082387       5.91833962       5.55385796      -1.05938044      -4.36545617      -4.46260737      -0.21371807       0.30282948       0.22576817
Li       5.75479274       5.36985449       2.58221292      -1.37034098       4.12705657      -3.00506527       0.01998550      -0.11031408       0.60227766
Li       2.79404836       3.52411644       4.39582462       1.65301550      -0.07345579       0.67356353       0.01222014       0.31216354      -0.06428138
Li       3.99852674       4.56702473       0.66806755       4.12520598       1.80535378       1.76882598       0.09700739       0.20942187      -0.14206489
Li       3.66201454       2.30856109       2.12549493      -0.12159384      -0.29518780       1.96238256       0.07615305      -0.15750355      -0.06977701
Cu       0.45341857       0.71761665       0.85562955      -1.63894938       1.06480047       1.22762192       0.32388021       0.49955530       0.09688022
Cu       3.53185461       7.09159912       3.57748643      -2.39166909       0.90119411      -5.10068634       0.25341485      -1.38167480       0.46456084
Cu       5.23938414       3.07131364       4.65558786       1.27602422       8.30359480       2.34810536       0.04811263       0.06531081      -0.21179433
Cu       5.00163553       5.45290311       5.15795762      -1.14758339      -4.77345121       0.23653640      -0.14399405      -0.47660582      -0.06460611
Cu       1.18450190       2.93551029       2.00304171       0.67527142      -6.69444876       4.35132324      -0.47306165       0.73681725      -0.83696317
10
Lattice="4.787138397253706 0.018301219149878242 -0.061755075768569964 1.8476860492345777 5.571329009210178 -0.025207066623360513 0.613941655377371 2.8223539332911076 5.826640392619365" Properties=species:S:1:pos:R:3:forces:R:3:REF_forces:R:3 config_type=buildcell_minim_mid buildcell_config_i=3 RSS_min_vol_per_atom=8.0 buildcell_type=narrow gap_rss_group=ALL gap_rss_iter=1 buildcell_symmetry="1 P1 P 1 @ 0.01" minim_pressure_GPa=0.08835013506243485 minim_config_type=minim_mid virial="-24.457223702736343 13.886712210780246 -25.64110917283874 13.886712210780281 -70.77680971636951 -0.45962461782857256 -25.641109172838743 -0.45962461782858366 -83.94243638081025" energy=-36.2000728482736 stress="0.15734881223164662 -0.08934201603285456 0.16496549737968635 -0.08934201603285456 0.4553520496756142 0.0029570563105108544 0.16496549737968635 0.0029570563105108544 0.5400548656253767" free_energy=-36.2000728482736 E_per_atom_dist_to_nearby=0.6563775133363592 vasp_rundir=run_iter_1/run_VASP_wllcrx5k REF_energy=-16.17303622 REF_stress="0.691133759520903 0.6386692425452224 0.6767803948971467 0.00851960531865976 -0.0027153658364005508 0.01585722952149571" pbc="T T T"
Li       2.43949614       5.66937690       5.21138025      -1.22845249      -0.53546323      -3.70819743      -0.54945422       0.44911105       0.71180645
Li       5.50712511       5.39492846       2.42366100      -2.88711734       1.62029546      -0.98329172       0.21435320      -0.28955819       0.65746910
Li       2.79344801       3.37138221       4.38622745       2.41706995      -2.86442675       4.69648211      -0.37194936       0.11706674      -0.24650589
Li       4.06522839       4.49034572       0.59321191       1.98059636       0.16760686       1.57457037      -0.14550034      -0.01394418      -0.25484714
Li       3.68762762       2.28489168       2.15336923       1.45839816       0.71681469       1.58154116      -0.20223870       0.02831407      -0.10295592
Cu       0.41060924       0.81829004       0.66771340      -1.99980566       0.84280615       1.32974755       1.11371976       0.28991245       2.12177719
Cu       3.34774564       6.95635844       3.46922467      -2.54698439       2.71443296      -8.13507840       0.71714093      -2.46636189       1.75246868
Cu       5.08065032       3.19679158       4.46540368      -2.82007047       6.58103564       2.40381698       0.24814445      -3.23837144      -2.38106336
Cu       4.76598675       5.16144980       4.99717703       1.55134227      -5.95692074      -0.22215108      -0.66055906       3.07435070       0.26302104
Cu       1.18465917       2.79680629       2.05082031       4.07502360      -3.28618103       1.46256047      -0.36365668       2.04948067      -2.52117016
10
Lattice="4.7858410520901105 0.020022151105326673 -0.06616356968291591 1.8491998262192277 5.550384920829883 -0.022207919941986908 0.6093730822914991 2.8165602282341893 5.819702240015852" Properties=species:S:1:pos:R:3:forces:R:3:REF_forces:R:3 config_type=buildcell_minim_mid buildcell_config_i=3 RSS_min_vol_per_atom=8.0 buildcell_type=narrow gap_rss_group=ALL gap_rss_iter=1 buildcell_symmetry="1 P1 P 1 @ 0.01" minim_pressure_GPa=0.08835013506243485 minim_config_type=minim_mid virial="-17.52952286787574 11.293876314792868 -21.135894452300583 11.293876314792852 -74.54574961847933 2.9587258760007193 -21.135894452300604 2.958725876000767 -79.2630527916877" energy=-37.333452964697436 stress="0.11342075046549455 -0.07307443202779587 0.13675494927089937 -0.07307443202779587 0.48233114668713034 -0.019143756039855693 0.13675494927089937 -0.019143756039855693 0.5128533731111624" free_energy=-37.333452964697436 E_per_atom_dist_to_nearby=0.8103806960094637 vasp_rundir=run_iter_1/run_VASP_jvo6oa7g REF_energy=-15.74496736 REF_stress="0.697273554785852 0.6329965803730195 0.6769650714903255 0.011308546233156969 -0.000424107056100166 0.014984561301370353" pbc="T T T"
Li       2.43197614       5.63884939       5.18875452      -1.19552531      -0.22582553      -3.48756670      -0.57038513       0.45024263       0.72866905
Li       5.47821332       5.38970554       2.42895071      -2.91790501       1.46744239      -0.70254700       0.24012798      -0.30909460       0.60697870
Li       2.80368346       3.33953580       4.40269519       2.70638706      -2.85177080       4.34587258      -0.43218401       0.10456422      -0.26968599
Li       4.06426509       4.47322109       0.59161252       1.60922627      -0.07508681       1.38653111      -0.15800609      -0.05245945      -0.23043758
Li       3.70436834       2.27459570       2.16346645       0.97846384       0.57725433       1.61594913      -0.21289426       0.06591159      -0.10698614
Cu       0.41089341       0.83989196       0.64264182      -1.87718907       1.18489411       1.29720852       1.26996778       0.10218059       2.46795396
Cu       3.33880517       6.93846687       3.46947703      -2.42501710       2.62983075      -8.12000989       0.77244140      -2.78511212       2.12820904
Cu       5.07304096       3.20797843       4.44915038      -2.62780670       5.97542221       2.07397513       0.38800434      -3.87932260      -2.65492576
Cu       4.75221202       5.13810720       4.97622181       1.95976418      -5.75143637       0.15541653      -0.92518737       3.86785721       0.24147108
Cu       1.20190712       2.78295202       2.06207384       3.78960185      -2.93072429       1.43517060      -0.37188463       2.43523253      -2.91124635
24
Lattice="6.317420854632893 -7.379318637728545e-19 0.0 -3.158710427316446 5.471046946509682 0.0 0.0 0.0 10.533718919830084" Properties=species:S:1:pos:R:3:forces:R:3:REF_forces:R:3 config_type=buildcell_minim_mid buildcell_config_i=5 RSS_min_vol_per_atom=8.0 buildcell_type=narrow gap_rss_group=ALL gap_rss_iter=1 buildcell_symmetry="154 P3_221 P 32 2\" @ 0.01" minim_pressure_GPa=0.13459767113795326 minim_config_type=minim_mid virial="-17.9185148592496 2.0816681711721685e-11 1.7266188478970435e-12 2.084465933194224e-11 -17.918514859263407 -2.1154189511207733e-12 1.7315038292053941e-12 -2.086331107875594e-12 -55.326865306164464" energy=-110.91641424825238 stress="0.049216421646187315 -5.725360337117612e-14 -4.755886478849028e-15 -5.725360337117612e-14 0.049216421646225236 5.73048337461727e-15 -4.755886478849028e-15 5.73048337461727e-15 0.1519651797405735" free_energy=-110.91641424825238 E_per_atom_dist_to_nearby=0.1954901744484241 vasp_rundir=run_iter_1/run_VASP_8uamkkdw REF_energy=-36.67259593 REF_stress="0.6884915294539792 0.6885039411380233 0.6762025706560604 3.7122686243107117e-06 -6.422038535840306e-06 1.0748839907176357e-05" pbc="T T T"
Li       4.07877973       0.76495878       6.03617931      -0.21801777       1.92016393       0.50633494       0.01204760       0.07626991      -0.71994425
Li       3.61555725       3.14984748       2.52493967      -1.55390185      -1.14889089       0.50633494      -0.07148320      -0.02736091      -0.72037200
Li       1.78179430       1.55624070       9.54741895       1.77191963      -0.77127303       0.50633494       0.06001900      -0.04793750      -0.72017050
Li      -1.37691613       3.91480625       4.49753961       1.77191963       0.77127303      -0.50633494       0.06002273       0.04856026       0.71994502
Li       0.92006930       4.70608817       8.00877925      -0.21801777      -1.92016393      -0.50633494       0.01204161      -0.07558778       0.72037578
Li       0.45684683       2.32119947       0.98629997      -1.55390185       1.14889089      -0.50633494      -0.07151921       0.02801983       0.72017011
Li      -1.70579413       4.96750615       0.55740700       2.56379285       0.80903318      -0.17448795      -1.13473834      -0.64478424      -0.82497931
Li      -0.29037902       1.51003283       7.57988628      -1.98253971       1.81579315      -0.17448795       1.12629585      -0.65999614      -0.82509408
Li       1.99617315       4.46455492       4.06864664      -0.58125314      -2.62482633      -0.17448795       0.00899232       1.30573873      -0.82510977
Li       5.15488358       1.00649202       9.97631192      -0.58125314       2.62482633       0.17448795       0.00895567      -1.30511542       0.82497676
Li       1.45291630       0.50354080       2.95383264       2.56379285      -0.80903318       0.17448795      -1.13471555       0.64541754       0.82507953
Li       2.86833140       3.96101412       6.46507228      -1.98253971      -1.81579315       0.17448795       1.12630634       0.66065239       0.82513415
Cu       0.53802763       4.54400433      -0.03111332       2.76041651      -1.44402378      -5.47421571       1.03897170       1.46814843       1.13866441
Cu      -1.04552657       3.66499039       6.99136596      -0.12964698       3.11260271      -5.47421571      -1.79096965       0.16474386       1.15081515
Cu       0.50749893       2.73309919       3.48012632      -2.63076953      -1.66857893      -5.47421571       0.74730157      -1.63367396       1.14841030
Cu       3.66620936       2.73794776      10.56483224      -2.63076953       1.66857893       5.47421571       0.75200767       1.63390588      -1.13864980
Cu       3.69673806       0.92704262       3.54235296       2.76041651       1.44402378       5.47421571       1.03814782      -1.46867500      -1.15081396
Cu       2.11318386       1.80605656       7.05359260      -0.12964698      -3.11260271       5.47421571      -1.78845525      -0.16966807      -1.14843134
Cu      -0.33371481       2.95525336       9.39060337       1.54989147       0.08167810       0.14370704      -1.04443770      -0.18785481      -1.20338739
Cu       0.76624334       3.70441477       5.87936373      -0.84568104       1.30140634       0.14370704       0.68590670      -0.80970485      -1.21091653
Cu      -0.43252854       4.28242577       2.36812409      -0.70421043      -1.38308444       0.14370704       0.35699434       0.99934172      -1.20653600
Cu       2.72618189       1.18862118       1.14311555      -0.70421043       1.38308444      -0.14370704       0.35950405      -0.99848307       1.20337463
Cu       2.82499562       2.51579359       4.65435519       1.54989147      -0.08167810      -0.14370704      -1.04415421       0.18919681       1.21092061
Cu       3.92495377       1.76663218       8.16559483      -0.84568104      -1.30140634      -0.14370704       0.68695815       0.80884637       1.20653848
24
Lattice="6.3141620998005275 -1.2466489345662155e-20 0.0 -3.1570810499002633 5.468224782040147 0.0 0.0 0.0 10.529597517274082" Properties=species:S:1:pos:R:3:forces:R:3:REF_forces:R:3 config_type=buildcell_minim_mid buildcell_config_i=5 RSS_min_vol_per_atom=8.0 buildcell_type=narrow gap_rss_group=ALL gap_rss_iter=1 buildcell_symmetry="154 P3_221 P 32 2\" @ 0.01" minim_pressure_GPa=0.13459767113795326 minim_config_type=minim_mid virial="-13.39699491710134 -5.646150214033696e-12 5.9046101341664325e-12 -5.629274824059394e-12 -13.396994917088573 1.0384137993924014e-11 5.9222626802579725e-12 1.0395684313380116e-11 -43.24942217721359" energy=-112.44835994566839 stress="0.036849664289308595 1.5483837139779085e-14 -1.6289727132913298e-14 1.5483837139779085e-14 0.03684966428927348 -2.859428397010797e-14 -1.6289727132913298e-14 -2.859428397010797e-14 0.11896150575548085" free_energy=-112.44835994566839 E_per_atom_dist_to_nearby=0.13165910372275746 vasp_rundir=run_iter_1/run_VASP_obiu_llw REF_energy=-35.2089858 REF_stress="0.6885578926992167 0.688574085720425 0.6745751762064409 4.1247824454585875e-06 -7.149080726368817e-06 1.4056121970345008e-05" pbc="T T T"
Li       4.05575994       0.77097736       6.04085856       0.11288600       1.92927207       0.40957442       0.06821561       0.02334134      -0.74883121
Li       3.61859615       3.12690247       2.53099272      -1.72724162      -0.86687389       0.40957442      -0.05369325       0.04775986      -0.74916804
Li       1.79688705       1.57034496       9.55072440       1.61435562      -1.06239818       0.40957442      -0.01388348      -0.07005570      -0.74915267
Li      -1.36019400       3.89787982       4.48873896       1.61435562       1.06239818      -0.40957442      -0.01390360       0.07073475       0.74883413
Li       0.89867889       4.69724743       7.99860480       0.11288600      -1.92927207      -0.40957442       0.06820559      -0.02262029       0.74917332
Li       0.46151510       2.34132232       0.97887312      -1.72724162       0.86687389      -0.40957442      -0.05372554      -0.04703680       0.74914992
Li      -1.64281815       4.97233137       0.60546944       2.60118106       1.05480503      -0.21657825      -1.37008995      -0.76403428      -1.00739624
Li      -0.32767516       1.55933685       7.62520112      -2.21407848       1.72528636      -0.21657825       1.34738703      -0.80420645      -1.00731713
Li       1.97049330       4.40478135       4.11533528      -0.38710257      -2.78009139      -0.21657825       0.02337480       1.56931751      -1.00733103
Li       5.12757435       1.06344344       9.92412808      -0.38710257       2.78009139       0.21657825       0.02337789      -1.56854585       1.00740077
Li       1.51426290       0.49589342       2.90439640       2.60118106      -1.05480503       0.21657825      -1.37016573       0.76475158       1.00729466
Li       2.82940589       3.90888793       6.41426224      -2.21407848      -1.72528636       0.21657825       1.34738153       0.80490904       1.00735397
Cu       0.54562546       4.55931604      -0.04240094       2.92427478      -1.59372967      -5.00115535       1.22511377       1.64295312       1.15471949
Cu      -1.06421519       3.66109228       6.97733074      -0.08192700       3.32936108      -5.00115535      -2.03644310       0.24195497       1.16606182
Cu       0.51858973       2.71604125       3.46746490      -2.84234777      -1.73563141      -5.00115535       0.80766049      -1.88789194       1.15381019
Cu       3.67567078       2.75218353      10.57199846      -2.84234777       1.73563141       5.00115535       0.81031250       1.88249880      -1.15470878
Cu       3.70270651       0.90890875       3.55226678       2.92427478       1.59372967       5.00115535       1.22773480      -1.64267931      -1.16605119
Cu       2.09286586       1.80713251       7.06213262      -0.08192700      -3.32936108       5.00115535      -2.03877692      -0.24447371      -1.15383287
Cu      -0.32701583       2.97276065       9.41087584       0.87278126       0.33865981       0.37838187      -1.11215042      -0.13153581      -1.20654283
Cu       0.74610272       3.69864045       5.90101000      -0.72967863       0.58652084       0.37838187       0.66931140      -0.89505452      -1.20841010
Cu      -0.41908690       4.26504847       2.39114416      -0.14310263      -0.92518065       0.37838187       0.44217933       1.02921730      -1.21138129
Cu       2.73799415       1.20317631       1.11872168      -0.14310263       0.92518065      -0.37838187       0.44213880      -1.02896496       1.20652890
Cu       2.83006522       2.49546413       4.62858752       0.87278126      -0.33865981      -0.37838187      -1.10981679       0.13208408       1.20840468
Cu       3.90318377       1.76958434       8.13845336      -0.72967863      -0.58652084      -0.37838187       0.67025525       0.89757726       1.21139155
18
Lattice="5.388210220532053 1.5442486181041557e-15 2.3327305878484622e-48 -2.6941051102660287 4.666326931911714 -2.283733774464935e-47 5.678215261736876e-48 -5.262751921884412e-48 12.790838651746705" Properties=species:S:1:pos:R:3:forces:R:3:REF_forces:R:3 config_type=buildcell_minim_mid buildcell_config_i=13 RSS_min_vol_per_atom=8.0 buildcell_type=wide gap_rss_group=ALL gap_rss_iter=1 buildcell_symmetry="143 P3 P 3 @ 0.01" minim_pressure_GPa=0.023736883627591562 minim_config_type=minim_mid virial="-320.7701548136024 8.777867321896338e-12 2.02171612784241e-12 8.780087767945588e-12 -320.77015481362747 7.112976874168453e-12 2.0392576516314875e-12 7.094214105052288e-12 -273.5110466438829" energy=-50.316492020756826 stress="0.9974134922844262 -2.730109978055546e-14 -6.340936229442652e-15 -2.730109978055546e-14 0.9974134922845042 -2.2058987593921822e-14 -6.340936229442652e-15 -2.2058987593921822e-14 0.8504644341677247" free_energy=-50.316492020756826 E_per_atom_dist_to_nearby=0.16454448181341297 vasp_rundir=run_iter_1/run_VASP_gz4q235x REF_energy=-27.63332263 REF_stress="0.5692363613411179 0.5692405959054674 0.5952885580515893 -1.157175791938756e-08 -3.176928145074578e-08 3.6823468295612273e-06" pbc="T T T"
Li      -0.15443211       1.74200158       1.89088042      -1.54690542       2.30027162      -6.23991332      -0.97312363      -0.77140679       0.93370581
Li       1.26270382       3.66158355       1.89088042      -1.21864095      -2.48979520      -6.23991332       1.15461548      -0.45700420       0.93370273
Li      -1.10827090       3.92906828       1.89088042       2.76554637       0.18952358      -6.23991332      -0.18153107       1.22847609       0.93370135
Li       1.06742600       1.17419770      10.18722343       1.41364795      -1.12181163       4.01299219       0.13027158       0.02226978      -0.43583467
Li       3.83761246       0.33731872      10.18722343       0.26469340       1.78516085       4.01299219      -0.08441587       0.10173104      -0.43582749
Li       3.17727769       3.15481006      10.18722343      -1.67834135      -0.66334922       4.01299219      -0.04589383      -0.12392925      -0.43582980
Li       3.30743239       3.02135825       6.11307863      -2.26525519      -1.92037727       2.70818116      -0.04609073       0.65564456      -0.88798227
Li       1.11792131       1.35364088       6.11307863       2.79572310      -1.00157991       2.70818116      -0.54475459      -0.36769745      -0.88797623
Li       3.65696245       0.29132735       6.11307863      -0.53046790       2.92195718       2.70818116       0.59080870      -0.28788364      -0.88797811
Cu      -0.57579291       4.20186459      11.69041884      -2.05363767      -0.57193727      -6.48645837      -1.87022723       2.88617905       0.63567765
Cu      -0.65691964       2.06674288      11.69041884       1.52213104      -1.49253376      -6.48645837      -1.56459514      -3.06291950       0.63568192
Cu       1.23271337       3.06404593      11.69041884       0.53150663       2.06447103      -6.48645837       3.43466120       0.17658841       0.63566797
Cu       1.29183570       2.45468487       7.94305068       2.86107193      -1.48395335       5.52808171       0.30793569       0.77668672       0.83605074
Cu       2.61647319      -0.10858036       7.94305068      -0.14539467       3.21973765       5.52808171      -0.82652436      -0.12166317       0.83605530
Cu       4.17400725       2.32022197       7.94305068      -2.71567727      -1.73578430       5.52808171       0.51884784      -0.65511258       0.83605268
Cu       3.11736771       2.85477546       0.49569142      -5.15678349       5.65073605       0.47711662      -0.74850496       0.17010516      -1.08162358
Cu       1.35721857       1.27233143       0.49569142      -2.31528922      -7.29127353       0.47711662       0.22706549      -0.73339518      -1.08161005
Cu       3.60772987       0.53921958       0.49569142       7.47207271       1.64053748       0.47711662       0.52145544       0.56333094      -1.08163395
18
Lattice="5.4016363827522165 2.9989048443273365e-15 3.1832183967607554e-48 -2.700818191376112 4.6779543294697055 -9.570418863396966e-48 7.735773758405546e-48 -1.6756825780817546e-46 12.735399355495296" Properties=species:S:1:pos:R:3:forces:R:3:REF_forces:R:3 config_type=buildcell_minim_mid buildcell_config_i=13 RSS_min_vol_per_atom=8.0 buildcell_type=wide gap_rss_group=ALL gap_rss_iter=1 buildcell_symmetry="143 P3 P 3 @ 0.01" minim_pressure_GPa=0.023736883627591562 minim_config_type=minim_mid virial="-317.7689544564237 5.909051026264933e-12 1.280686667826103e-11 5.846434447676074e-12 -317.7689544564136 -1.4132250925058543e-11 1.2770062784994707e-11 -1.4099610368134563e-11 -256.2057737525185" energy=-51.916100942530136 stress="0.9874555921169811 -1.8167584681702342e-14 -3.9682510616238276e-14 -1.8167584681702342e-14 0.9874555921169497 4.381403189150843e-14 -3.9682510616238276e-14 4.381403189150843e-14 0.796150223225396" free_energy=-51.916100942530136 E_per_atom_dist_to_nearby=0.07567731949267342 vasp_rundir=run_iter_1/run_VASP_whseph5m REF_energy=-26.78679068 REF_stress="0.5797727286871668 0.5797775608760151 0.5941844602529854 1.3469176693656072e-08 -1.9604580164399315e-08 3.770926327075762e-06" pbc="T T T"
Li      -0.13735673       1.76137283       1.84915402      -2.05214123       2.24730014      -5.08242364      -1.16832042      -0.74085601       1.14716071
Li       1.24410321       3.67831303       1.84915402      -0.92014839      -2.90085651      -5.08242364       1.22577518      -0.64133720       1.14715908
Li      -1.10674567       3.91622234       1.84915402       2.97228962       0.65355637      -5.08242364      -0.05745966       1.38224362       1.14715324
Li       1.04855659       1.14407208      10.13405412       1.13701236      -0.94654524       3.55902137       0.21887474       0.11629912      -0.43222491
Li       3.88656288       0.33604014      10.13405412       0.25122604       1.45795421       3.55902137      -0.21012078       0.13143032      -0.43221794
Li       3.16733592       3.19784165      10.13405412      -1.38823840      -0.51140897       3.55902137      -0.00874549      -0.24766380      -0.43222220
Li       3.26567939       3.02848538       6.11593878      -2.47129514      -2.17694696       2.84310620      -0.07587153       0.74257016      -0.98662465
Li       1.14605168       1.31391816       6.11593878       3.12093894      -1.05173089       2.84310620      -0.60510207      -0.43696905      -0.98662259
Li       3.69072431       0.33555033       6.11593878      -0.64964380       3.22867785       2.84310620       0.68098822      -0.30554346      -0.98662359
Cu      -0.56915739       4.21485349      11.62740560      -2.23309872      -0.86197736      -7.01341117      -1.70034135       2.90264814       0.75202884
Cu      -0.66477303       2.07762237      11.62740560       1.86304365      -1.50293154      -7.01341117      -1.66376043      -2.92413108       0.75203682
Cu       1.23393123       3.06343235      11.62740560       0.37005507       2.36490890      -7.01341117       3.36407482       0.02123612       0.75201758
Cu       1.31453933       2.43171426       7.90459536       2.44296683      -0.66234987       5.49381432       0.27619736       0.87443569       0.93333552
Cu       2.63844067      -0.07743314       7.90459536      -0.64787160       2.44684627       5.49381432      -0.89530922      -0.19795450       0.93333500
Cu       4.14947539       2.32367275       7.90459536      -1.79509523      -1.78449640       5.49381432       0.61915225      -0.67642947       0.93333945
Cu       3.12248693       2.88881281       0.52310378      -5.30626457       6.40432803       0.19989292      -0.97065737      -0.60133174      -1.41366955
Cu       1.33860792       1.25974614       0.52310378      -2.89317849      -7.79752393       0.19989292       1.00618830      -0.54013477      -1.41366656
Cu       3.64136054       0.52939493       0.52310378       8.19944305       1.39319590       0.19989292      -0.03556253       1.14148790      -1.41369424
18
Lattice="5.504017060196211 -5.16911268287283e-07 1.5688909457272093e-06 6.190640762932438e-07 6.73343321778792 0.04668792783083249 -2.752010986814483 -2.527743694643158 7.785874678026556" Properties=species:S:1:pos:R:3:forces:R:3:REF_forces:R:3 config_type=buildcell_minim_mid buildcell_config_i=16 RSS_min_vol_per_atom=8.0 buildcell_type=wide gap_rss_group=ALL gap_rss_iter=1 buildcell_symmetry="5 C2 C 2y @ 0.01" minim_pressure_GPa=0.018920209126208405 minim_config_type=minim_mid virial="-172.09671791247317 -1.9733163442698264e-06 7.267753318827211e-06 -1.9733164196742875e-06 -134.12642264798495 19.433117836041372 7.267753321441646e-06 19.433117836041305 -191.19090968260628" energy=-40.66697156669659 stress="0.5950757704522205 6.823330526157498e-09 -2.5130426423432195e-08 6.823330526157498e-09 0.4637821410158629 -0.06719580541014446 -2.5130426423432195e-08 -0.06719580541014446 0.661099637825178" free_energy=-40.66697156669659 E_per_atom_dist_to_nearby=0.9334282396957545 vasp_rundir=run_iter_1/run_VASP_zgcvix5u REF_energy=-29.46366123 REF_stress="0.673519827521378 0.6583959404883111 0.6979951354499255 -0.010197368765649637 0.005179428523839312 0.0003867332801864338" pbc="T T T"
Li      -2.35727626       2.41928142       7.95071249      -2.02440238      -1.80999435       2.06233106       0.24764354       0.35872611      -0.02350835
Li       0.39473451       1.78640803      -0.11814965      -2.02440087       1.80999473      -2.06233221       0.23648434      -0.38974355       0.03910197
Li       0.46379789       3.66788172       2.28306601      -0.30151118       4.94977972       4.27132225       1.13103895      -0.69417876      -0.30878489
Li       3.21580520       0.53780721       5.54949844      -0.30150967      -4.94977966      -4.27132242       1.09783512       0.68628194       0.27394575
Li       3.98716691       2.03105052       1.75693152       2.72273593      -1.61974038       1.40906003      -0.45984483      -0.31009865      -0.29226292
Li       1.23515716       2.17463826       6.07563337       2.72273703       1.61973986      -1.40905848      -0.51216825       0.28732648       0.28674256
Li      -0.55938563       1.99755390       4.16800747      -0.15405219       2.80373635       1.12462719       0.09007621      -0.10858285       0.22270003
Li       2.19262306       2.20813522       3.66455639      -0.15405207      -2.80373632      -1.12462727       0.07993660       0.07796823      -0.23237835
Li       0.97646319      -2.52774404       7.78587574      -1.91382903       0.00000018      -0.00000055      -0.42638692       0.00485193       0.01590620
Cu       3.78475816       4.34115089       2.46711223      -1.88380866      -1.24318397      -1.50259302      -0.47790255      -0.65999312      -0.23600299
Cu       1.03274838      -0.13546207       5.36545254      -1.88380928       1.24318432       1.50259194      -0.47386112       0.68172210       0.23844031
Cu       2.12757660       5.87665038       2.07475331       3.23841120       1.41616870      -3.52395665      -0.06425613      -0.35577982      -0.21716525
Cu      -0.62443369      -1.67096125       5.75781052       3.23840893      -1.41616931       3.52395849      -0.02508811       0.35947039       0.16363274
Cu       0.05132086      -1.19804295       3.38390608      -3.64310903      -3.57930937      -0.18923332       0.10709297       0.73031192       0.91657060
Cu       2.80332971       5.40373195       4.44865813      -3.64310846       3.57931005       0.18923124       0.09764823      -0.70110246      -0.90427842
Cu       0.70849464       0.85914995       2.43273337      -1.77224396      -4.42844505       9.60031485      -0.68561734       1.01032413      -0.58944396
Cu       3.46050256       3.34653892       5.39983121      -1.77223766       4.42844539      -9.60031586      -0.63527048      -1.00893022       0.62603618