18
Lattice="6.3552941568952654 0.014831896237610756 0.017280749074489545 -0.8220926698308267 6.3019161727226685 0.017280749074492955 -0.822092669830823 -0.9385077150724394 6.2316650536643605" Properties=species:S:1:pos:R:3:minim_forces:R:3:REF_forces:R:3 config_type=buildcell_minim_mid buildcell_config_i=2 RSS_min_vol_per_atom=8.0 buildcell_type=narrow gap_rss_group=ALL gap_rss_iter=1 buildcell_symmetry="146 R3 R 3 @ 0.01" minim_pressure_GPa=0.13827628193202385 minim_config_type=minim_mid minim_energy=-63.687537768163395 minim_stress="0.6220810708849679 0.6194635730213722 0.6154425409322762 -0.013105633294935887 -0.011479974956227282 -0.009853149109863894" E_per_atom_dist_to_nearby=0.31400054625139395 vasp_rundir=run_iter_1/run_VASP_14_7tcc5 REF_energy=-28.52152998 REF_stress="0.7618507018474152 0.762297688291171 0.7629843549518359 0.0022380876449248958 0.0019604683274130072 0.0016826518718353776" pbc="T T T"
Li       1.91479227       2.22456651       4.46173067       2.98141486       1.11071432       2.00735406      -0.52960112      -0.40789732       0.04227112
Li       3.78523879       2.43438541       2.87539582       1.40735136       3.19453190       1.40225506       0.17245984      -0.51134586      -0.39676630
Li       1.95308000       4.07790225       2.84224523       0.70848413       1.51381647       3.37022271      -0.33461154       0.12953167      -0.56559807
Li      -0.20519633       5.08068125       1.19966280      -1.02783255      -0.75139622      -2.47116647       0.08587503       0.39542426      -0.43161470
Li       0.43878504      -0.14871671       5.20384180      -2.17304614      -1.32549555      -1.11742192      -0.49365187       0.02105737       0.32540501
Li       5.06346549       1.11519583       0.64208553      -0.60952065      -2.27309128      -1.47960818       0.38067438      -0.44742246       0.07015901
Li       6.51918633       0.69235567       2.86072497       1.34709453      -2.41934407      -0.38495776      -0.50853188       0.73201379      -0.03503508
Li       1.84058105       6.82091859       1.11813464      -0.19090183       1.33356908      -2.44974119      -0.07740173      -0.52327843       0.71823090
Li      -0.17204712       1.83389414       6.91159361      -2.57565125      -0.53469050       0.94668294       0.79259218       0.02720366      -0.40831415
Cu       3.84102037      -0.85545027       4.67333448       2.21449925       2.24821636      -3.11061382       1.55954151      -0.37463465       2.22767608
Cu       4.20192119       4.43287707      -0.13691908      -3.67739629       1.74549680       1.75054264       2.03372252       1.84337298      -0.03251273
Cu      -1.35374592       4.05901362       4.36085635       1.93706182      -3.45240277       1.99075581      -0.57671396       1.97495694       1.81710525
Cu       4.78316773       1.89062946       4.93105757       1.08320794      -0.00601080      -0.36385651      -0.13048058      -1.66246544       0.23868688
Cu       3.91761919       5.34553652       2.61648642      -0.49823933       1.02654261      -0.06111454       0.50092871      -0.06509332      -1.60706062
Cu       1.24437407       4.11731112       5.68047395      -0.14858341      -0.52235089       1.00540522      -1.63081255       0.28872028      -0.30800864
Cu       3.34320092       2.63542940       0.51477172       1.22331254      -1.23854828      -0.65063950      -1.24111537      -0.75669769       0.31296332
Cu      -0.33194985       3.32847196       2.68301214      -0.61241745       1.15271194      -1.32288594       0.58381803      -1.17446861      -0.70048347
Cu       2.17228863      -0.04633007       3.69682109      -1.38883753      -0.80226911       0.93878739      -0.58669161       0.51102283      -1.26710380
18
Lattice="6.2930453489377625 0.03552141733475209 0.041386259039188224 -0.7933870368765278 6.2429334887209045 0.041386259039195024 -0.79338703687652 -0.9057371297329645 6.17701963885929" Properties=species:S:1:pos:R:3:minim_forces:R:3:REF_forces:R:3 config_type=buildcell_minim_last_unconverged buildcell_config_i=2 RSS_min_vol_per_atom=8.0 buildcell_type=narrow gap_rss_group=ALL gap_rss_iter=1 buildcell_symmetry="146 R3 R 3 @ 0.01" minim_pressure_GPa=0.13827628193202385 minim_config_type=minim_last_unconverged minim_energy=-66.4765857131749 minim_stress="0.6906795887615191 0.6840030610900526 0.6737464979867589 -0.033428918725280005 -0.029282304879402574 -0.02513271303790907" minim_n_steps=20 E_per_atom_dist_to_nearby=0.5489104618645637 vasp_rundir=run_iter_1/run_VASP_nlp3pepg REF_energy=-28.62638012 REF_stress="0.74755645518779 0.7496282073198006 0.7528108532240043 0.010373101632017023 0.009086390233762672 0.0077987558411387855" pbc="T T T"
Li       1.97759552       2.12784881       4.44723995       2.39843622       2.30407026       1.80357207      -0.43729889      -0.02048214       0.12013309
Li       3.77730916       2.49668698       2.77759921       1.10506105       2.56628127       2.55091137       0.17835281      -0.41744629      -0.00203096
Li       1.84893510       4.05606987       2.88899703       1.96821063       1.37619496       2.92341284       0.03727418       0.18488580      -0.41292702
Li      -0.19871914       5.06331677       1.25196107      -0.92621271      -0.41208297      -1.51360209       0.02938360       0.44917720      -0.52309111
Li       0.49178580      -0.13514277       5.19460834      -1.29917873      -1.10691138      -0.63683237      -0.58392076      -0.04792009       0.36467051
Li       5.04539935       1.16626244       0.65410239      -0.28654174      -1.34864911      -1.19067757       0.44140260      -0.53042638       0.00792032
Li       6.46244841       0.72135502       2.89035290       0.34608031      -1.72290659       0.25106629      -0.56897959       0.63315579      -0.04007654
Li       1.87272302       6.76795162       1.15129128       0.45941223       0.41014148      -1.66491362      -0.05955984      -0.58185170       0.61975879
Li      -0.13582961       1.87112901       6.86426682      -1.75347457       0.23054108       0.15294032       0.70256693       0.03324450      -0.48116717
Cu       3.77217674      -0.87520348       4.69478519       1.46006806       2.42802760      -2.58983541       1.63049594       0.32150595       1.93028476
Cu       4.23497303       4.36781894      -0.15319120      -3.09481445       1.06182134       2.00724269       1.62834759       1.86109871       0.61048447
Cu      -1.36426258       4.09095887       4.29408309       2.21464280      -2.82783446       1.35391056       0.10403532       1.65646193       1.93214407
Cu       4.75682774       1.91112411       4.84060431       0.30009302      -2.06091177      -0.29350830       0.21965819      -1.93907378       0.08337482
Cu       3.82937780       5.30724449       2.62302823      -0.01731668       0.30042856      -2.08158668       0.34423850       0.26730579      -1.90400420
Cu       1.26815845       4.03145390       5.64361667      -2.08248188      -0.29407536      -0.01868600      -1.95110836       0.08810629      -0.02448481
Cu       3.34559036       2.65863427       0.58413035       1.23389471      -0.43734384      -1.36059145      -1.67040412      -0.97343735       0.34116886
Cu      -0.26779275       3.33940408       2.71646586      -1.42987634       1.05480771      -0.63859943       0.70054280      -1.59204554      -0.91046581
Cu       2.19497685       0.02140407       3.71269954      -0.59600193      -1.52159878       0.94577679      -0.74502691       0.60774132      -1.71169207
22
Lattice="4.4098056383759126 -0.00010795398672968116 4.0369282873671094e-05 1.8689517662265869 7.252481617508557 -0.0017770327159637063 2.101117445096548 -0.4432798984192501 11.97539627298535" Properties=species:S:1:pos:R:3:minim_forces:R:3:REF_forces:R:3 config_type=buildcell_minim_mid buildcell_config_i=10 RSS_min_vol_per_atom=8.0 buildcell_type=wide gap_rss_group=ALL gap_rss_iter=1 buildcell_symmetry="1 P1 P 1 @ 0.01" minim_pressure_GPa=0.0035290065855197606 minim_config_type=minim_mid minim_energy=-25.339104725834943 minim_stress="0.6126945424616231 0.5726420880587239 0.5203908096714371 0.040889179010638876 -0.0020222190210089502 0.006345642168449604" E_per_atom_dist_to_nearby=0.21308814065051074 vasp_rundir=run_iter_1/run_VASP_8_8gkstl REF_energy=-36.05678543 REF_stress="0.6126775789362461 0.6453992836156108 0.6344705520746045 -0.002741098068081359 0.00687954999898598 0.0016621055290835013" pbc="T T T"
Li       3.67132829       5.91329919       5.22645288       1.20771781       0.98963445       0.22141381       0.29845570      -0.23177343       0.36862912
Li       3.02135686       2.12841675       9.14848621      -0.88948778       2.65910370       0.13660694       0.22748936      -0.60381971      -0.19803022
Li       6.88580330       4.71264253       8.80951778      -0.50936867      -1.39859836      -0.46602273      -0.04058064       0.20478763      -0.19434963
Li       2.50551959       1.27623431       5.03178430      -0.22211652       0.25840535      -0.74413043      -0.20220084       0.57143566      -0.09657403
Li       5.78723686      -0.00473852       9.35340631       0.17384845       0.27885898       0.36037051      -0.11102547       0.34709333      -0.49519318
Li       7.93653811       5.71189526      11.58349470      -0.38814668       2.90588489       1.28049131      -0.18576559      -0.22444851       0.08678189
Li       3.71600888       3.36476772       6.86807326      -0.11497919       2.43484725       1.35579775       0.56292167      -0.21250618      -0.43348831
Li       1.21857912       2.35147188       1.52351623       2.84116717      -1.14519417      -0.96798156      -0.01971222      -0.15969119       0.44191093
Li       3.70641155       4.54075354      -0.00119861       1.73761153      -2.11361549       0.68820036      -0.27593639      -0.24388175       0.34477937
Li       4.64971893       4.71176153       2.49634036      -3.10629647       1.11708172       0.18298000       0.13432574       0.55587605      -0.23422222
Li       5.91582849       6.69148896       3.82107347      -0.51322058       0.49893141       1.05417612       0.46571293       0.15007937      -0.13633623
Cu       5.14857906       7.48474877       1.58761214      -0.43632794      -2.57189639       0.85886056       0.19603153       0.11852701       0.81622275
Cu       2.74835100       0.76244274      11.31145272      -1.21833736      -0.33195381      -3.90296138      -0.07534071       0.72706819       0.08943939
Cu       2.95074439       6.87645857       1.42545811       0.13627463      -3.26919342       1.04968468       0.12861831      -0.87756334       0.20878370
Cu       3.57330676       3.15124402      11.30480544      -2.08727787       2.56070783      -6.07763814      -0.77481663      -0.23206253       0.30422623
Cu       2.87069060       1.62797045      -0.17933826       2.20229056      -0.52749577       0.40580296      -0.35577557       1.00981258      -1.03219959
Cu       5.97190540       4.47618189       5.72403747      -0.51499041      -1.45118090       2.76273644      -0.36457414       0.40685087       0.69324022
Cu       0.82670532       2.79047555       3.92927270      -0.60761533       4.27205247      -4.64446301      -1.11117193      -0.57703239       0.82013641
Cu       4.34528183       0.08764130       6.22245238      -2.63984224      -0.27858646       2.35657553      -0.02107015      -0.33646682       0.41691014
Cu       2.48794531       4.33711058       3.61451411       2.85745815      -2.25922028       1.98309251       0.95672787       0.09590458      -1.07986513
Cu       5.24687476       3.12539154       9.74564401       2.70965743       1.85629664       0.62821891       0.43662825      -0.07231357      -0.51535256
Cu       5.72948544       6.15774796      10.53348172      -0.61801868      -4.48486962       1.47818887       0.13105890      -0.41587585      -0.17544907
22
Lattice="4.401795203062974 -0.00014424292192784382 6.006758741928681e-05 1.8654968267482424 7.24197223071074 -0.0026214497143446295 2.097358055330215 -0.4440679998603888 11.957336552887249" Properties=species:S:1:pos:R:3:minim_forces:R:3:REF_forces:R:3 config_type=buildcell_minim_mid buildcell_config_i=10 RSS_min_vol_per_atom=8.0 buildcell_type=wide gap_rss_group=ALL gap_rss_iter=1 buildcell_symmetry="1 P1 P 1 @ 0.01" minim_pressure_GPa=0.0035290065855197606 minim_config_type=minim_mid minim_energy=-27.135040518853785 minim_stress="0.6143397150543237 0.5741660192792774 0.5257293343159777 0.0386722948582781 -0.0022230033313554443 0.009117959784278103" E_per_atom_dist_to_nearby=0.1961729853376315 vasp_rundir=run_iter_1/run_VASP_h4sqf665 REF_energy=-35.92626152 REF_stress="0.614627425269942 0.6505490791393279 0.637860068048997 -0.0034749248164787604 0.008504216784287259 0.002262096764456794" pbc="T T T"
Li       3.66724684       5.90836065       5.21949592       1.18089656       1.08062553       0.27845976       0.28160888      -0.22737051       0.38476077
Li       3.01408948       2.13352981       9.13272938      -0.89184095       2.68869853      -0.00674452       0.24677459      -0.64434429      -0.24080842
Li       6.87215397       4.70041683       8.79644824      -0.49418479      -1.30939594      -0.20784328      -0.03557922       0.23884038      -0.19781016
Li       2.50005246       1.27853848       5.02152963      -0.10864761       0.25524916      -0.74235357      -0.20359914       0.58161670      -0.09773368
Li       5.77602703      -0.00495511       9.33816240       0.06420819       0.29162779       0.16000415      -0.12079363       0.34069446      -0.52228300
Li       7.92177139       5.71584634      11.56719640      -0.33497202       2.94194814       1.15480474      -0.18991280      -0.26832970       0.07987700
Li       3.70943712       3.36753404       6.85955759      -0.05163764       2.36875428       1.20195627       0.56794493      -0.22752159      -0.43603604
Li       1.22634162       2.34426571       1.51752074       2.77508264      -1.05113503      -0.94201133      -0.02795703      -0.14001158       0.42096124
Li       3.70701910       4.52862917       0.00323285       1.67100140      -1.81225685       0.79834012      -0.31575042      -0.24159760       0.34399064
Li       4.63170084       4.71014658       2.49076775      -2.98980918       1.16348335      -0.04546666       0.17891319       0.54951569      -0.22968277
Li       5.90464434       6.67943287       3.81998129      -0.37232994       0.34111467       1.17697320       0.46996254       0.14919661      -0.13505351
Cu       5.13790526       7.46606540       1.58508422      -0.22554944      -2.69029843       0.91719846       0.25533495       0.10490284       0.95199185
Cu       2.74142378       0.76070876      11.28065137      -1.28879256      -0.18035262      -3.73199920      -0.00348987       0.81838717       0.07884648
Cu       2.94795353       6.85685948       1.42502617       0.16051494      -3.52807044       1.17244238       0.08187994      -0.89021953       0.20245234
Cu       3.56026319       3.15657248      11.26728930      -1.89024504       2.74888334      -5.85211108      -0.76875223      -0.27771677       0.36885837
Cu       2.86794352       1.60657376      -0.17400045       2.15975312      -0.34091999       0.24851663      -0.45975194       1.16228217      -1.11815919
Cu       5.95897764       4.46337440       5.72314142      -0.55708170      -1.22958109       2.64644137      -0.35451777       0.41005502       0.69315945
Cu       0.82242875       2.78613877       3.90880772      -0.63199705       4.10420884      -4.69514683      -1.11857599      -0.61076909       0.81962526
Cu       4.32788619       0.09186184       6.22665875      -2.55989491      -0.67090465       2.49245144       0.00262673      -0.33978403       0.41105546
Cu       2.49075684       4.32703978       3.61381520       2.47245231      -2.01567446       1.83389894       0.91411099       0.11146675      -1.06734236
Cu       5.24612798       3.12005251       9.73211607       2.57221657       1.61666917       0.51240231       0.45561271      -0.13014543      -0.51912064
Cu       5.71680064       6.14339102      10.52050263      -0.65914290      -4.77267331       1.62978671       0.14391061      -0.46914768      -0.19154911
22
Lattice="4.292456287369458 -0.014853769291897948 -0.003985133862431056 1.794971335951998 7.128928407252837 -0.0017209239721372657 2.035754153251541 -0.44027494077779633 11.710045501295582" Properties=species:S:1:pos:R:3:minim_forces:R:3:REF_forces:R:3 config_type=buildcell_minim_mid buildcell_config_i=10 RSS_min_vol_per_atom=8.0 buildcell_type=wide gap_rss_group=ALL gap_rss_iter=1 buildcell_symmetry="1 P1 P 1 @ 0.01" minim_pressure_GPa=0.0035290065855197606 minim_config_type=minim_mid minim_energy=-44.675760559905555 minim_stress="0.6466753955958058 0.5987129067921388 0.5455635568004908 0.006773853173771222 -0.005310041938554139 0.060532768903420436" E_per_atom_dist_to_nearby=0.15324517082346523 vasp_rundir=run_iter_1/run_VASP_9myhg_rc REF_energy=-34.33620821 REF_stress="0.6347949197087672 0.6913454791875091 0.6641723616829849 -0.0027293092616821188 0.013839689739654451 0.006426516300592869" pbc="T T T"
Li       3.59825763       5.85734071       5.14871643       2.22917178       1.36803574      -0.56375287       0.06549057      -0.27859481       0.41974714
Li       2.95316288       2.23885738       8.92060051      -0.76482092       2.57280383      -0.44528707       0.17726513      -1.29978851      -0.65424383
Li       6.57835617       4.57575880       8.52952576      -0.87276442      -0.79101824      -0.25722373      -0.08854574       0.77175479      -0.25892060
Li       2.44529381       1.28376400       4.89227967      -0.25299816      -0.12107708      -0.84210482      -0.28510959       0.69107298      -0.00966499
Li       5.63237283       0.04164871       9.16518339      -0.48183185      -0.37221472      -0.65634872      -0.12569964       0.33480343      -0.85098674
Li       7.70609199       5.57377034      11.25899155       0.95425548       2.35393366       0.67408739       0.10806087      -0.22413306       0.29895335
Li       3.57017021       3.35562300       6.72198476      -0.01007034       1.78280137       0.03063445       0.50664404      -0.29812664      -0.50723607
Li       1.36786698       2.23197129       1.50131365       1.82167405       0.32460386       0.95132279      -0.20611297       0.29084634       0.30546051
Li       3.65335772       4.42627375       0.07389356       0.80430709      -0.84340249       0.75097852      -0.43300830      -0.34980599       0.15395063
Li       4.34187733       4.65033659       2.43875664      -1.32723267       2.07123643      -1.32034552       0.99793509       0.56002512      -0.20951513
Li       5.71513698       6.63074062       3.88475952       1.77668361       0.46907442       1.15129593       0.50395367      -0.07626550      -0.64229988
Cu       4.96023032       7.28046764       1.57969848       0.83185665      -4.54466475       0.46392049       0.45160933      -0.03750579       1.29885333
Cu       2.62441249       0.74353219      11.06354833      -2.14941248       1.31068668      -2.67139073      -0.39019766       1.09092959      -0.07048750
Cu       2.82694167       6.70755895       1.50017967      -1.59665742      -4.24320675       3.69155223       0.08527067      -0.94759810       0.20536629
Cu       3.49494005       3.15107227      10.84267731      -1.54994335       2.86909888      -3.33592280      -1.56089591      -0.22498007       1.57763966
Cu       2.74348718       1.50460140      -0.09363440       2.61874518       1.49312537      -1.86990371       0.20837450       1.51914378      -1.59335062
Cu       5.64532898       4.30737965       5.60530324      -2.34348731      -0.72380152       0.95105499       0.32732753       0.44638913       0.07650810
Cu       0.79945853       2.64873681       3.64486053       0.30008824       4.28199055      -3.52462569      -1.20808587      -0.46991583       0.89842966
Cu       4.22112734       0.06348220       6.11712848      -2.04002498      -2.93283439       1.48769551      -0.10174819      -0.17477402       0.64884651
Cu       2.46297098       4.28556956       3.49191635       0.27217842      -1.22044735      -0.37018262      -0.21203328      -0.23219639      -0.03917631
Cu       5.14424441       3.04004503       9.50201271       2.63551908       1.88600403       0.26578509       1.22484674      -0.36215780      -0.80161673
Cu       5.61687999       6.07295072      10.38885676      -0.85523570      -6.99072753       5.43876089      -0.04534097      -0.72912263      -0.24625676
16
Lattice="6.10928 0.0 0.0 3.0546399999999996 5.988565332488623 3.8680170177940454e-13 3.054640000000001 0.6130099043783188 5.957107821637832" Properties=species:S:1:pos:R:3:minim_forces:R:3:REF_forces:R:3 config_type=buildcell_minim_initial buildcell_config_i=12 RSS_min_vol_per_atom=8.0 buildcell_type=wide gap_rss_group=ALL gap_rss_iter=1 buildcell_symmetry="24 I2_12_12_1 I 2b 2c @ 0.01" minim_pressure_GPa=0.16598580632928675 minim_config_type=minim_initial minim_energy=-59.77991846901274 minim_stress="0.6438776220531872 0.5673704004422963 0.5403268683797743 0.13140182175183873 5.551115123125783e-17 -2.7511910971358333e-17" E_per_atom_dist_to_nearby=0.3397271106676909 vasp_rundir=run_iter_1/run_VASP_50wnwzjt REF_energy=-29.4234834 REF_stress="0.7705734456127199 0.8030064342766373 0.8059278007410056 -0.01419460090401539 -8.606984911010881e-06 -9.551331483266143e-06" pbc="T T T"
Li       6.56571592       5.26282086       5.76698434      -4.18540708      -0.71074808      -1.53092102      -0.08905681      -0.13376133       0.28033514
Li       2.59820347       0.32616421       1.31226030       4.18540708       1.59563379       0.55030429       0.08905651      -0.26517030       0.16175467
Li       6.56571592       4.63954199       3.16867738      -4.18540708       0.71074808       1.53092102      -0.08907290       0.13376058      -0.28025432
Li       2.59820347       2.97462340       1.66629360       4.18540708      -1.59563379      -0.55030429       0.08907264       0.26509006      -0.16174597
Li       2.69536271       3.63164452       4.25448301       3.68621049      -1.94695027      -2.68930976      -0.36773980      -0.25764748       0.15328133
Li       6.46855667       1.99769324       2.78004341      -3.68621049       2.87447946       1.66143619       0.36774012      -0.12610240       0.27198461
Li       8.80464271       6.27071833       4.68117871       3.68621049       1.94695027       2.68930976      -0.36782331       0.25764863      -0.15319876
Li       6.46855667       1.30309438       0.19851049      -3.68621049      -2.87447946      -1.66143619       0.36782360       0.12602028      -0.27197729
Cu      10.12822892       5.21161482       2.84454639      -4.20228906       1.11653447       4.10164418       0.62976220      -1.28300848      -0.30321968
Cu       5.14497047       3.23849243       1.06404667       4.20228906      -4.19439080      -0.69081115      -0.62976240       0.43296124       1.24523001
Cu      10.12822892       4.69074803       6.09111533      -4.20228906      -1.11653447      -4.10164418       0.63029619       1.28298004       0.30354923
Cu       5.14497047       0.06229518       1.91450722       4.20228906       4.19439080       0.69081115      -0.63029473      -0.43328690      -1.24516849
Cu       5.13033997       3.22334905       4.64746805       2.40873693       0.02372484       0.05022279       0.42110635      -0.16617082       0.03163779
Cu       4.03357941       1.64856703       3.22642141      -2.40873693      -0.05238753      -0.01845924      -0.42110658      -0.01446076       0.16853787
Cu       5.13033997       6.67901380       4.28819367       2.40873693      -0.02372484      -0.05022279       0.42252099       0.16635666      -0.03198759
Cu       4.03357941       1.65222058      -0.24786752      -2.40873693       0.05238753       0.01845924      -0.42252209       0.01479095      -0.16875855
16
Lattice="6.051561229348481 9.527184827040129e-18 1.0094770740231463e-17 3.02578061467424 5.867379547368084 -0.07682598717071663 3.0257806146742414 0.5241824897812268 5.844422786091436" Properties=species:S:1:pos:R:3:minim_forces:R:3:REF_forces:R:3 config_type=buildcell_minim_mid buildcell_config_i=12 RSS_min_vol_per_atom=8.0 buildcell_type=wide gap_rss_group=ALL gap_rss_iter=1 buildcell_symmetry="24 I2_12_12_1 I 2b 2c @ 0.01" minim_pressure_GPa=0.16598580632928675 minim_config_type=minim_mid minim_energy=-74.2349783746566 minim_stress="0.5417727223820185 0.566286250458319 0.5180852419075722 0.234203887243771 5.551115123125783e-17 8.543513119185775e-17" E_per_atom_dist_to_nearby=0.21120078286575428 vasp_rundir=run_iter_1/run_VASP_h30vgc_6 REF_energy=-27.76182373 REF_stress="0.7943527735253794 0.8235255594487327 0.8278699796453802 -0.02110909812996318 -7.468221570993479e-06 -8.360332953374227e-06" pbc="T T T"
Li       6.33885763       5.03388515       5.54591930      -3.91954546      -0.71657438      -1.22059983       0.58758119      -0.01505852       0.60044402
Li       2.73848360       0.35948945       1.32785343       3.91954546       1.28753909       0.58786552      -0.58758056      -0.59574743       0.07644395
Li       6.33885763       4.55345790       3.10547588      -3.91954546       0.71657438       1.22059983       0.58752963       0.01532323      -0.60071255
Li       2.73848360       2.83629156       1.55594495       3.91954546      -1.28753909      -0.58786552      -0.58752952       0.59598943      -0.07673258
Li       2.76266868       3.48603945       4.07015732       3.30667119      -0.82961130      -1.73294130      -0.87471198      -0.23165692       0.22013912
Li       6.31467255       1.98594211       2.71650440      -3.30667119       1.80876011       0.64786365       0.87471225      -0.19526944       0.25297511
Li       8.81422991       6.10130360       4.58123786       3.30667119       0.82961130       1.73294130      -0.87469787       0.23182759      -0.22032146
Li       6.31467255       1.20983890       0.16729398      -3.30667119      -1.80876011      -0.64786365       0.87469753       0.19543357      -0.25316168
Cu       9.99042895       5.08219220       2.78118108      -2.17069538       0.46306663       2.52470949       0.72566977      -1.46263915      -0.80424334
Cu       5.13847352       3.10475983       0.99679213       2.17069538      -2.55884844      -0.20219632      -0.72566804       0.94973695       1.37263039
Cu       9.99042895       4.50515084       5.87021410      -2.17069538      -0.46306663      -2.52470949       0.74002463       1.46078960       0.80482475
Cu       5.13847352       0.09102119       1.88700625       2.17069538       2.55884844       0.20219632      -0.74002707      -0.95013170      -1.37073327
Cu       5.15214288       3.09858570       4.54811655       1.60413733       0.44556431       0.81287911      -0.61411057      -0.30110279      -0.55683175
Cu       3.92519836       1.55015464       3.15084841      -1.60413733      -0.85421859      -0.36001472       0.61411021       0.58472797       0.24252353
Cu       5.15214288       6.48875735       4.10327863       1.60413733      -0.44556431      -0.81287911      -0.61155341       0.30238817       0.55658052
Cu       3.92519836       1.64562637      -0.26705003      -1.60413733       0.85421859       0.36001472       0.61155381      -0.58461055      -0.24382477
6
Lattice="2.971360699927483 0.0 0.0 0.0 5.892280170560633 -1.4170319783981745e-15 0.0 -2.946140085280315 5.102864313920813" Properties=species:S:1:pos:R:3:minim_forces:R:3:REF_forces:R:3 config_type=buildcell_minim_mid buildcell_config_i=13 RSS_min_vol_per_atom=8.0 buildcell_type=wide gap_rss_group=ALL gap_rss_iter=1 buildcell_symmetry="145 P3_2 P 32 @ 0.01" minim_pressure_GPa=0.10828778580694452 minim_config_type=minim_mid minim_energy=-17.2382792902471 minim_stress="0.6958977131078776 0.9553524675492091 0.9553524675492086 3.3306690738754696e-16 0.0 0.0" E_per_atom_dist_to_nearby=0.22990076089546374 vasp_rundir=run_iter_1/run_VASP_4x13zt_g REF_energy=-10.40502857 REF_stress="0.7737791925343266 0.6628842919950315 0.6629492951030833 2.0850741151945787e-05 -4.054259633845233e-06 -3.4950453822025964e-06" pbc="T T T"
Li       1.15206532      -0.16415853       1.95084839      -0.46053710       1.61607671       0.67695837       0.00619549      -0.09700673      -0.32766034
Li       2.14251888      -1.17457655       4.26960558      -0.46053710      -0.22177521      -1.73804268       0.00604326      -0.23534825       0.24769394
Li       0.16161175       1.33873509       3.98527466      -0.46053710      -1.39430151       1.06108430       0.00613639       0.33212303       0.07981001
Cu       2.64141681       1.76403518       1.59267119       0.46053710      -2.60232346       0.41786941      -0.01086805      -1.03100474      -0.22706906
Cu       0.66050968       3.44341620       2.77882945       0.46053710       1.66304726       2.04474352       0.00135610       0.31892489       1.00684237
Cu       1.65096325       3.63096888       0.73136369       0.46053710       0.93927621      -2.46261293      -0.00886319       0.71231178      -0.77961692
6