14
Lattice="6.073654683404581 -0.0004935436263092065 0.000984127626642228 -1.791958425569613 6.106732857218 -0.0016393146613721782 -0.6789002176702476 -3.0507344276746435 5.632804460581229" Properties=species:S:1:pos:R:3:minim_forces:R:3:REF_forces:R:3 config_type=buildcell_minim_mid buildcell_config_i=3 RSS_min_vol_per_atom=8.0 buildcell_type=narrow gap_rss_group=ALL gap_rss_iter=1 buildcell_symmetry="2 P-1 -P 1 @ 0.01" minim_pressure_GPa=0.0188892212934177 minim_config_type=minim_mid minim_energy=-39.37095514110895 minim_stress="0.33990850191048533 0.6188168717945663 0.543206431004962 0.05638097457743444 -0.0332155658046179 -0.007405772681468934" E_per_atom_dist_to_nearby=0.25203017709389286 vasp_rundir=run_iter_1/run_VASP_iw78lvrt REF_energy=-24.07131959 REF_stress="0.7227096564808394 0.7246162930403435 0.7145240829181372 -0.010600721499430832 0.013918012409184695 -0.004133439593378443" pbc="T T T"
Li       4.34196796      -0.93833702       1.87619189      -4.09828843       0.85918656      -0.96666416       0.75144725      -0.11575453       0.18835702
Li      -0.73917192       3.99384190       3.75595738       4.09828843      -0.85918656       0.96666416      -0.75144758       0.11575467      -0.18835724
Li      -0.56692975      -0.21330021       4.75082574      -1.07911232      -3.24912245      -2.74568129      -0.24223495       0.42366155       0.01307330
Li       4.16972579       3.26880510       0.88132354       1.07911232       3.24912245       2.74568129       0.24223507      -0.42366118      -0.01307320
Li       3.06503137       2.27988921       4.69326936       1.09111404       0.39640539       1.20369308       0.01779102       0.12834051       0.03068868
Li       0.53776467       0.77561567       0.93887991      -1.09111404      -0.39640539      -1.20369308      -0.01779082      -0.12834096      -0.03068838
Li      -1.23542932       1.52799921       2.81558257       0.00000000       0.00000000       0.00000000      -0.00000005      -0.00000003       0.00000000
Cu       1.08850542       2.39928276       3.22677721       2.18600545      -0.45764315       4.97294528      -0.47209923      -0.79047398       0.30069271
Cu       2.51429062       0.65622213       2.40537207      -2.18600545       0.45764315      -4.97294528       0.47209917       0.79047392      -0.30069194
Cu       3.38701130      -1.60432045       4.06620637      -5.29359348      -2.26869205      -2.38404370       1.14543212       0.53782281      -0.06880499
Cu       0.21578474       4.65982534       1.56594291       5.29359348       2.26869205       2.38404370      -1.14543225      -0.53782274       0.06880458
Cu       1.71154131       2.98603586       1.06398003       4.01008476      -0.76869013      -3.12212323       0.38558474      -0.87784352       0.08359930
Cu       1.89125473       0.06946902       4.56816925      -4.01008476       0.76869013       3.12212323      -0.38558448       0.87784341      -0.08359978
Cu       3.03682734      -0.00024677       0.00049206       0.00000000       0.00000000       0.00000000      -0.00000000       0.00000008      -0.00000007
14
Lattice="6.056828629762475 0.00899492939957196 -0.0032927559694846805 -1.7774306768926695 6.037917277562785 0.015524470116523408 -0.685765058406932 -3.0041769469366533 5.590027355558422" Properties=species:S:1:pos:R:3:minim_forces:R:3:REF_forces:R:3 config_type=buildcell_minim_mid buildcell_config_i=3 RSS_min_vol_per_atom=8.0 buildcell_type=narrow gap_rss_group=ALL gap_rss_iter=1 buildcell_symmetry="2 P-1 -P 1 @ 0.01" minim_pressure_GPa=0.0188892212934177 minim_config_type=minim_mid minim_energy=-43.844509909232926 minim_stress="0.2849905818204025 0.6277230957336415 0.521237184037755 0.01607534492446286 -0.0401739728915004 -0.0117081521752436" E_per_atom_dist_to_nearby=0.22611418794905536 vasp_rundir=run_iter_1/run_VASP_sqwgkjry REF_energy=-23.49339907 REF_stress="0.7288173901370163 0.7208892258915178 0.7245541503535089 -0.015024022799671601 0.013591754502775479 0.0005425200060440178" pbc="T T T"
Li       4.26240669      -0.90675571       1.89244075      -3.92738201       0.75714718      -0.33881057       1.10962054      -0.04512257       0.12489083
Li      -0.66877379       3.94949097       3.70981832       3.92738201      -0.75714718       0.33881057      -1.10962011       0.04512263      -0.12489037
Li      -0.61115955      -0.25342810       4.71300542      -1.72238990      -3.16798103      -2.17560329      -0.09192737       0.40041767       0.00638978
Li       4.20479244       3.29616336       0.88925365       1.72238990       3.16798103       2.17560329       0.09192808      -0.40041762      -0.00638947
Li       3.05637661       2.28140669       4.68660877       1.63604753       0.55327358       0.85537560       0.10784745       0.14815783       0.03898167
Li       0.53725629       0.76132857       0.91565030      -1.63604753      -0.55327358      -0.85537560      -0.10784685      -0.14815734      -0.03898125
Li      -1.23159787       1.51687017       2.80277591       0.00000000       0.00000000       0.00000000       0.00000044       0.00000009       0.00000007
Cu       1.15383205       2.34734074       3.23711937       2.10850544      -0.39074800       5.35696752      -1.32401177      -0.36881242       0.66598100
Cu       2.43980084       0.69539452       2.36513970      -2.10850544       0.39074800      -5.35696752       1.32401118       0.36881289      -0.66598159
Cu       3.32480637      -1.59428585       3.99337815      -4.73901070      -2.69788392      -2.05524301       1.72772545       0.94606464       0.24256416
Cu       0.26882652       4.63702111       1.60888092       4.73901070       2.69788392       2.05524301      -1.72772539      -0.94606483      -0.24256463
Cu       1.71117730       2.96310092       1.08821077       3.94358459      -0.91924023      -3.79190012       0.64413265      -0.81296218      -0.62403095
Cu       1.88245560       0.07963434       4.51404830      -3.94358459       0.91924023       3.79190012      -0.64413379       0.81296114       0.62403091
Cu       3.02841431       0.00449746      -0.00164638       0.00000000       0.00000000       0.00000000      -0.00000050       0.00000006      -0.00000014
14
Lattice="6.052937846309229 0.01462326067463297 -0.005145683487059572 -1.770609458513308 6.020100105640225 0.017892776042331644 -0.6898837060619574 -2.995059995166244 5.580574810870481" Properties=species:S:1:pos:R:3:minim_forces:R:3:REF_forces:R:3 config_type=buildcell_minim_mid buildcell_config_i=3 RSS_min_vol_per_atom=8.0 buildcell_type=narrow gap_rss_group=ALL gap_rss_iter=1 buildcell_symmetry="2 P-1 -P 1 @ 0.01" minim_pressure_GPa=0.0188892212934177 minim_config_type=minim_mid minim_energy=-44.85114678421468 minim_stress="0.26171522912285017 0.6200677233023584 0.5128566019582886 0.007811101919580576 -0.04357312679396684 -0.016075284071413405" E_per_atom_dist_to_nearby=0.21209735987540457 vasp_rundir=run_iter_1/run_VASP_j27fv57k REF_energy=-23.31407963 REF_stress="0.7286127271518353 0.718207766822508 0.7253725099107377 -0.01652455609218686 0.013382224769510256 0.0007130329422917018" pbc="T T T"
Li       4.23761905      -0.90355515       1.90175501      -3.98085512       0.78077708      -0.21706940       1.25023663      -0.00082924       0.10365367
Li      -0.64517436       3.94321853       3.69156689       3.98085512      -0.78077708       0.21706940      -1.25023705       0.00082912      -0.10365407
Li      -0.61925567      -0.25979572       4.71234352      -1.83782257      -3.03618894      -2.14688775      -0.06992618       0.39174824      -0.01977898
Li       4.21170036       3.29945909       0.88097839       1.83782257       3.03618894       2.14688775       0.06992555      -0.39174809       0.01977868
Li       3.05729012       2.27402252       4.68269133       1.68678702       0.64461787       0.74859618       0.12542790       0.16497472       0.05127555
Li       0.53515456       0.76564085       0.91063057      -1.68678702      -0.64461787      -0.74859618      -0.12542849      -0.16497519      -0.05127564
Li      -1.23024658       1.51252006       2.79923379       0.00000000       0.00000000       0.00000000      -0.00000032      -0.00000016      -0.00000004
Cu       1.16867684       2.34111005       3.23737063       2.29487353      -0.48403575       5.39634344      -1.44305729      -0.40392642       0.70452792
Cu       2.42376784       0.69855332       2.35595127      -2.29487353       0.48403575      -5.39634344       1.44305794       0.40392559      -0.70452749
Cu       3.30978933      -1.59574989       3.97521763      -4.66005720      -2.65054378      -2.04953489       1.89734732       1.11728730       0.35295868
Cu       0.28265535       4.63541326       1.61810427       4.66005720       2.65054378       2.04953489      -1.89734713      -1.11728727      -0.35295926
Cu       1.71258243       2.96488374       1.09080910       3.95550365      -1.07242598      -4.02347529       0.69773080      -0.87940789      -0.71926340
Cu       1.87986226       0.07477963       4.50251280      -3.95550365       1.07242598       4.02347529      -0.69773001       0.87941004       0.71926375
Cu       3.02646892       0.00731163      -0.00257284       0.00000000       0.00000000       0.00000000       0.00000032      -0.00000076       0.00000063
8
Lattice="5.3381828153555855 -6.480561585360637e-05 -9.607790448680164e-05 -1.4548098848261897 5.136119544302826 -9.6077904487276e-05 -1.4548098848261897 -1.9240962267900443 4.762098034758707" Properties=species:S:1:pos:R:3:minim_forces:R:3:REF_forces:R:3 config_type=buildcell_minim_mid buildcell_config_i=5 RSS_min_vol_per_atom=8.0 buildcell_type=narrow gap_rss_group=ALL gap_rss_iter=1 buildcell_symmetry="146 R3 R 3 @ 0.01" minim_pressure_GPa=0.28948009715078593 minim_config_type=minim_mid minim_energy=-10.560566343170882 minim_stress="0.8961134669149485 0.8983285507211602 0.9045240404466037 0.007667266857203409 0.0057972233707188105 0.0039102916824250485" E_per_atom_dist_to_nearby=0.7910348167289134 vasp_rundir=run_iter_1/run_VASP_0vka16id REF_energy=-14.1770543 REF_stress="0.6534367192471269 0.6510375505037453 0.6443272177661277 -0.008304438185695439 -0.006278999936334611 -0.004235224857176995" pbc="T T T"
Li       3.12643003      -0.60935013       3.76587095      -1.84976246      -1.33757086       4.26006175       0.47845524       0.47983645      -0.26141136
Li      -1.43829324       2.42702277       4.04580393      -0.78285256       4.75311369      -0.39229480       0.33128657      -0.46381012       0.45014192
Li       2.72712194       4.02184135       0.84572713       4.78655336      -0.56679628       0.35565714      -0.53653673       0.34531038       0.34697181
Li       1.49641701       1.97912480       2.93416183       0.16986705       0.22466204       0.33307388      -0.18750199      -0.24798421      -0.36765088
Cu      -1.12494109       2.18397647       1.58268906      -0.09430555       1.35187015      -1.82574735      -0.31800381       0.28116789       0.13300128
Cu       2.40788083       1.64994940       0.14116373       1.32640294      -1.79682273      -0.42647762       0.35719012       0.20923410      -0.16281653
Cu       0.93131089      -0.90541175       2.61783116      -2.09028238      -0.69006206       0.56950308       0.10397489      -0.30106291       0.31051859
Cu       0.52305992       0.69178635       1.02561147      -1.46562040      -1.93839395      -2.87377608      -0.22886429      -0.30269159      -0.44875482
8
Lattice="5.279461683272697 -0.006300289151758616 -0.009340526610076463 -1.4448068323186354 5.0779216788045645 -0.00934052661007836 -1.4448068323186376 -1.9108664324458402 4.7046748345515255" Properties=species:S:1:pos:R:3:minim_forces:R:3:REF_forces:R:3 config_type=buildcell_minim_mid buildcell_config_i=5 RSS_min_vol_per_atom=8.0 buildcell_type=narrow gap_rss_group=ALL gap_rss_iter=1 buildcell_symmetry="146 R3 R 3 @ 0.01" minim_pressure_GPa=0.28948009715078593 minim_config_type=minim_mid minim_energy=-15.809286191743803 minim_stress="0.8431163637905306 0.8395770806259427 0.8296778648851443 -0.01225083603157647 -0.009262861757104794 -0.00624790334407422" E_per_atom_dist_to_nearby=0.15643029391796026 vasp_rundir=run_iter_1/run_VASP_95mljyzs REF_energy=-13.12951404 REF_stress="0.7002626511550206 0.695192939935577 0.6810126875432684 -0.017548654065343356 -0.013268565427814788 -0.008949847185287301" pbc="T T T"
Li       3.05368721      -0.61276825       3.72700682      -0.67437178      -1.87581257       3.40038233       0.69621921       0.41674459      -0.52672749
Li      -1.42175830       2.41755578       3.96548834      -1.62103666       3.58733853       0.19822343       0.21124054      -0.78183976       0.52908493
Li       2.71350721       3.94238077       0.82799928       3.89332151       0.40183506      -0.46543133      -0.80981493       0.49424037       0.18909671
Li       1.43935092       1.90365057       2.82226712      -0.79769469      -1.05501163      -1.56411300      -0.05974908      -0.07902811      -0.11715897
Cu      -1.10056244       2.27225478       1.52252249      -0.02443235       2.44517206      -1.05675944       0.51405481      -0.47844293       0.16400391
Cu       2.48617427       1.57636520       0.16267877       2.35928265      -1.22062326       0.20017014      -0.60043160       0.01559757       0.39910246
Cu       0.83917547      -0.90617031       2.67714290      -1.81736922      -0.54014089       1.87126181       0.17865015       0.58487580      -0.38217811
Cu       0.50153382       0.66331645       0.98340328      -1.31769945      -1.74275729      -2.58373394      -0.13016910      -0.17214754      -0.25522343
8
Lattice="5.271957178741233 -0.018698090241592906 -0.027720951412285796 -1.4546902795170034 5.06732259716496 -0.027720951412286452 -1.4546902795170036 -1.923938039712469 4.687962155802155" Properties=species:S:1:pos:R:3:minim_forces:R:3:REF_forces:R:3 config_type=buildcell_minim_mid buildcell_config_i=5 RSS_min_vol_per_atom=8.0 buildcell_type=narrow gap_rss_group=ALL gap_rss_iter=1 buildcell_symmetry="146 R3 R 3 @ 0.01" minim_pressure_GPa=0.28948009715078593 minim_config_type=minim_mid minim_energy=-17.060728543087485 minim_stress="0.8293183820419873 0.8172666695617025 0.7835585720909731 -0.04171566575202254 -0.031541230653205916 -0.0212749111065197" E_per_atom_dist_to_nearby=0.22567121638887855 vasp_rundir=run_iter_1/run_VASP_h3lp9903 REF_energy=-13.11446007 REF_stress="0.7019581112526992 0.6957247638487074 0.6782903412529936 -0.021576053320974786 -0.016313652465449833 -0.011003765397098972" pbc="T T T"
Li       3.02104554      -0.65425982       3.67615153      -0.63086462      -1.60919041       3.94019805       0.73501063       0.46819776      -0.51551344
Li      -1.45278404       2.38640409       3.90683456      -1.37636238       4.04494825       0.50662105       0.25017504      -0.79067863       0.58089637
Li       2.69198963       3.90236045       0.77047835       4.26693311       0.55287459      -0.01600648      -0.82893364       0.52914704       0.24100356
Li       1.42560524       1.88547088       2.79531472      -1.22167677      -1.61576003      -2.39545348      -0.08129946      -0.10752075      -0.15940175
Cu      -1.08010003       2.29414330       1.52143222      -0.44181291       2.78557972      -1.49317235       0.73678167      -0.56559338      -0.00829643
Cu       2.50165797       1.56574465       0.18605537       2.80054963      -1.50957535      -0.24964125      -0.74497781      -0.21551561       0.51125688
Cu       0.82473731      -0.88899238       2.69702919      -2.21563764      -1.08674501       2.02340106      -0.00434907       0.76454377      -0.52751781
Cu       0.48183325       0.63726096       0.94477458      -1.18112842      -1.56213176      -2.31594661      -0.06240737      -0.08258019      -0.12242739
8
Lattice="5.246274218325688 -0.048961409912220775 -0.07258799415966798 -1.4768091058872896 5.034364434394653 -0.07258799415966871 -1.4768091058872903 -1.9531918623624145 4.640596494416979" Properties=species:S:1:pos:R:3:minim_forces:R:3:REF_forces:R:3 config_type=buildcell_minim_mid buildcell_config_i=5 RSS_min_vol_per_atom=8.0 buildcell_type=narrow gap_rss_group=ALL gap_rss_iter=1 buildcell_symmetry="146 R3 R 3 @ 0.01" minim_pressure_GPa=0.28948009715078593 minim_config_type=minim_mid minim_energy=-20.845855337130864 minim_stress="0.6947405467429908 0.6943410487886146 0.6932236709879517 -0.0013828178493801079 -0.0010455490989392212 -0.0007052345034348947" E_per_atom_dist_to_nearby=0.20647916436642433 vasp_rundir=run_iter_1/run_VASP_dfjikeu2 REF_energy=-12.75627892 REF_stress="0.7005440722756051 0.6917142605143175 0.6670176151218496 -0.03056346967261901 -0.023109059556438136 -0.01558731552800349" pbc="T T T"
Li       2.97607987      -0.79530971       3.65974542      -0.71852617      -2.24441822       3.14220429       0.63224446       0.61034731      -0.71843641
Li      -1.57624138       2.40179853       3.82493561      -1.96365807       3.40150345      -0.03101778       0.41495561      -0.95628250       0.44912431
Li       2.74044568       3.86935050       0.63355319       3.80789041       0.33174642      -0.90391138      -1.03317680       0.36448319       0.29679297
Li       1.34575541       1.77986344       2.63874585      -0.79460232      -1.05092173      -1.55804950       0.14856106       0.19648492       0.29130352
Cu      -1.07671960       2.24921582       1.49049080       0.13331204       1.98305887      -1.13687911       0.62359757      -0.50152028       0.06453113
Cu       2.45750973       1.54042429       0.16612826       1.87167196      -1.30458880       0.19411554      -0.65247770      -0.11372895       0.45376344
Cu       0.81240647      -0.88897153       2.64378234      -1.76527435      -0.36143592       1.41278421       0.06837896       0.66750264      -0.44081626
Cu       0.48573625       0.64242297       0.95242754      -0.57081350      -0.75494408      -1.11924629      -0.20208317      -0.26728634      -0.39626271
8
Lattice="5.1257400173746746 -0.06673212078767743 -0.09893405444578476 -1.4610595474733457 4.913549521516797 -0.09893405444578764 -1.461059547473349 -1.932361878847765 4.51870937510955" Properties=species:S:1:pos:R:3:minim_forces:R:3:REF_forces:R:3 config_type=buildcell_minim_last_unconverged buildcell_config_i=5 RSS_min_vol_per_atom=8.0 buildcell_type=narrow gap_rss_group=ALL gap_rss_iter=1 buildcell_symmetry="146 R3 R 3 @ 0.01" minim_pressure_GPa=0.28948009715078593 minim_config_type=minim_last_unconverged minim_energy=-28.606578740198422 minim_stress="0.33848813147119383 0.37082498681182535 0.46126971601541494 0.11193043736050252 0.08463064602368575 0.057084312620447504" minim_n_steps=20 E_per_atom_dist_to_nearby=0.404998884896012 vasp_rundir=run_iter_1/run_VASP_0v8cmr3y REF_energy=-11.71056761 REF_stress="0.7127797278054003 0.7022396314946903 0.6727593460587339 -0.036483538307289225 -0.027585206909293083 -0.01860653440013048" pbc="T T T"
Li       2.84276453      -0.82419523       3.60228140      -2.20693655       0.48699309       2.23678754       0.66657848       0.66318226      -1.42227207
Li      -1.56770286       2.39951771       3.67718122       1.06998937       2.81963596      -1.00783209       0.45642767      -1.62666924       0.22943005
Li       2.73592429       3.72951016       0.58524476       2.42132449      -1.60794282       1.28944070      -1.68947969       0.21427824       0.08210431
Li       1.26201717       1.66911326       2.47455260      -2.10382222      -2.78246418      -4.12515681       0.37872094       0.50087741       0.74257572
Cu      -1.00133628       2.22271767       1.41585418       2.90268572       3.23636776      -2.58768202       0.84924259      -0.40140310       0.21606396
Cu       2.41147125       1.44675739       0.19872260       2.32284176      -3.77584805       2.43785491      -0.61764508      -0.06477513       0.73710827
Cu       0.73483107      -0.83259505       2.59125453      -4.26595018       1.80859392       2.03135815       0.10601125       0.91267497      -0.29122436
Cu       0.42991733       0.56859822       0.84297827      -0.14013238      -0.18533569      -0.27477039      -0.14985616      -0.19816542      -0.29378587
22
Lattice="5.5992326769447915 -0.024447484144762957 0.005910393180374598 0.8640686403861801 6.851462340049867 0.011430002370955497 0.6030930608514244 2.5811922795815248 7.311835580363659" Properties=species:S:1:pos:R:3:minim_forces:R:3:REF_forces:R:3 config_type=buildcell_minim_mid buildcell_config_i=10 RSS_min_vol_per_atom=8.0 buildcell_type=wide gap_rss_group=ALL gap_rss_iter=1 buildcell_symmetry="1 P1 P 1 @ 0.01" minim_pressure_GPa=0.0035290065855197606 minim_config_type=minim_mid minim_energy=-84.69524346922162 minim_stress="0.5381382079600984 0.663589815344103 0.6850808637454365 -0.06775984897278349 -0.02095291783866681 0.007344112430607723" E_per_atom_dist_to_nearby=0.04913966603489728 vasp_rundir=run_iter_1/run_VASP_rcdz39_3 REF_energy=-34.18824775 REF_stress="0.7701761133762264 0.790299689885476 0.7959122592634451 0.0145520123108265 -0.016180135618915653 0.01168840300556207" pbc="T T T"
Li       4.96896911       7.75370220       5.66963064      -1.09184561       3.43557266      -3.34205059       0.66883154       0.62913481       1.45567908
Li       5.19393455       3.37757247       0.55637671       0.14875074      -3.61957102      -0.25221898       0.04626533       0.34385915      -0.13119105
Li       3.58378270       4.52374765       7.47640060      -1.17316267      -2.15019888      -0.79231795       0.80985759       0.95104702       0.20147194
Li       3.14015084       4.72698158       1.32410144      -0.96080401      -0.18926897       3.06194500      -0.17075875       0.07827928      -0.59361850
Li       5.06166591       6.66429602       0.63786805      -1.55851757       2.26666745      -0.43308736       0.59705745      -0.41335355      -0.03836984
Li       4.87452972       4.27038772       2.98257315      -1.03031367       0.15240397       0.45231557       0.74160220      -0.45924978       0.24342363
Li       2.29244177       0.43500243       2.08102334       2.02733041       1.88895337       0.84388950      -1.01653086      -0.49952637      -0.05109715
Li       5.03345755       5.23427790       5.26397654      -1.40862684       1.50001715      -1.52584869      -0.00486224      -0.26237241       0.95819579
Li       2.43733329       1.69806031       4.37071566       2.22206042       0.61543353       1.29720304      -0.94229687       0.34835833       0.44034875
Li       1.61234727       4.96874031      -0.85373996       0.95182724      -2.65664495       0.45050419      -0.26019419       0.36709904       0.48974490
Li       1.62967050       2.93665133       2.19055465       0.71767537      -0.11328739      -0.58747270      -0.22872002       0.63608511       0.37657960
Cu       5.65692573       1.80902773       3.87081252       2.33529970      -2.71919090      -1.29002435       0.64605739       1.36258809       0.27268170
Cu       1.19259994       6.55987298       4.47405060       0.11124880      -3.55127225       0.24047925       0.61436433       0.54547216       0.84184623
Cu       1.22444317       2.69873864      -1.23232870      -3.46861908      -0.75769626      -1.25757729       0.10725931       1.21540601       2.51171166
Cu       2.98339636       5.42316715       3.64831169       0.30973089      -1.67259115      -0.64727045      -0.16858855      -0.19879654      -0.73230128
Cu       4.70064556       6.82735225       3.77220756      -0.07742777      -0.83677814       4.24943093       0.15131113      -0.62588261      -1.26033138
Cu       3.22616463       3.91416594       5.11171589       0.95389811       0.75752662       1.43842709       1.78371489      -2.82127729      -0.67712845
Cu       6.73662295       3.80503844       7.88815110      -0.93687833       1.92336256       0.82974349      -1.26357607       0.49648854       1.16432864
Cu       1.22414481       5.92889325       2.31502379       2.76532617       4.61037436      -1.01925877      -1.18249230      -0.22996514      -2.43690601
Cu       0.89791027       3.42271829       5.51756189       0.58058739       5.67717728      -1.31458571      -1.46526389      -2.13928144      -0.87008231
Cu       2.97176751       6.87155284      -0.39658485      -2.33954053       1.85449509      -0.70656698      -0.02316530      -1.83328750       0.17449019
Cu       3.79123797       1.87711787       2.65372616       0.92200083      -6.41548416       0.30434177       0.56012787       2.50917510      -2.33947615
10
Lattice="6.597950179042151 0.014195906386937634 -6.606512767744038e-18 -1.5149221736943397 6.421694394513783 1.5784790603569325e-17 -2.5415140026739054 -3.21794515045036 5.215222882682772" Properties=species:S:1:pos:R:3:minim_forces:R:3:REF_forces:R:3 config_type=buildcell_minim_mid buildcell_config_i=20 RSS_min_vol_per_atom=10.0 buildcell_type=narrow_even gap_rss_group=ALL gap_rss_iter=1 buildcell_symmetry="22 F222 F 2 2 @ 0.01" minim_pressure_GPa=0.0035290065855197606 minim_config_type=minim_mid minim_energy=-18.46625397514488 minim_stress="-0.03940475779886189 -0.04152962807552274 -0.024518996243135263 -9.343856723040736e-18 -3.522307637838796e-18 -0.004460651207187337" E_per_atom_dist_to_nearby=0.06167483264414009 vasp_rundir=run_iter_1/run_VASP_ikxlm6cy REF_energy=-17.63425632 REF_stress="-0.0050251559506466125 -0.005355141997837845 0.01524604491345228 -8.005359604857866e-08 -6.365091006575747e-08 -0.0006927191207208008" pbc="T T T"
Li       0.20007803       1.98595445       4.04773764      -0.36603318       0.35706676      -0.16569342      -0.03883035       0.06478653      -0.04484037
Li       0.65595949       2.56317006       1.16748524      -0.43215933       0.27334095       0.16569342      -0.07202308       0.02276438       0.04483942
Li       4.42706851       3.87272026       1.16748524       0.43215933      -0.27334095       0.16569342       0.07204707      -0.02276497       0.04483586
Li      -0.20007803      -1.98595443       4.04773764       0.36603318      -0.35706676      -0.16569342       0.03883751      -0.06481017      -0.04483826
Li      -1.85622571       0.20116604       3.57029240       0.29706207       0.04307292      -0.23605240       0.18505214      -0.08820496      -0.03954942
Li       1.91573839       4.97704906       1.64493048       0.02692787      -0.29895826       0.23605240       0.12868121      -0.15958169       0.03955093
Li       3.16728962       1.45884126       1.64493048      -0.02692787       0.29895826       0.23605240      -0.12870241       0.15957536       0.03957450
Li       1.85622571      -0.20116602       3.57029240      -0.29706207      -0.04307292      -0.23605240      -0.18505108       0.08822812      -0.03957194
Li       5.37221854       0.98227150      -0.00000000       0.17349526      -0.13702553      -0.00000000       0.20732874      -0.16374455       0.00000002
Li      -2.83070454       2.23567367       5.21522288      -0.17349526       0.13702553       0.00000000      -0.20733976       0.16375195      -0.00000074
18
Lattice="7.787867858837946 -6.87640618568546e-15 -8.090571560052345e-18 3.8939339294189788 6.744491407069981 6.570101709479361e-18 3.893933929418976 2.248163802356659 6.86474860911228" Properties=species:S:1:pos:R:3:minim_forces:R:3:REF_forces:R:3 config_type=buildcell_minim_mid buildcell_config_i=25 RSS_min_vol_per_atom=10.0 buildcell_type=narrow_even gap_rss_group=ALL gap_rss_iter=1 buildcell_symmetry="146 R3 R 3 @ 0.01" minim_pressure_GPa=0.31075263526058133 minim_config_type=minim_mid minim_energy=-30.532110682478358 minim_stress="-0.013165869785543679 -0.013165869785543632 0.006248386007809629 -5.029691090035529e-17 3.259143195408775e-17 1.3564913748316545e-17" E_per_atom_dist_to_nearby=0.06439060214763503 vasp_rundir=run_iter_1/run_VASP_1xx61qna REF_energy=-30.73575758 REF_stress="-0.015502586479883805 -0.015502365343215474 -0.007183355530586457 -1.0655504379707898e-07 -1.5782279975708407e-07 -1.9132097923569952e-07" pbc="T T T"
Li       5.10703165       1.27516347      -0.37346727       0.02969591       0.20272907       0.03637361      -0.16510479       0.39099412      -0.12627054
Li       2.44474245       1.68409120      -0.37346727       0.16072057      -0.12708195       0.03637361       0.42116672      -0.05249254      -0.12627351
Li       4.13002885       3.78523741      -0.37346727      -0.19041648      -0.07564712       0.03637361      -0.25604112      -0.33849087      -0.12627167
Li       4.59198304       5.09070167       4.76623360      -0.22317476       0.07165426       0.10313963      -0.17645599       0.17367471       0.20829889
Li       9.90055370       6.96685868       4.76623360       0.17364178       0.15744788       0.10313963       0.23863016       0.06597131       0.20829267
Li       8.87106800       1.43142313       4.76623360       0.04953297      -0.22910214       0.10313963      -0.06218555      -0.23965026       0.20830110
Li       6.50968706       8.09822081       7.32917647       0.09753168      -0.12807168       0.26887849       0.02996227      -0.12683762       0.16418926
Li      11.54628967       3.80231872       7.32917647      -0.15967917      -0.02042907       0.26887849      -0.12482027       0.03747973       0.16419479
Li       5.30762802       1.58844396       7.32917647       0.06214749       0.14850075       0.26887849       0.09485215       0.08935732       0.16418571
Li      13.04047832       5.87394899       8.15485188      -0.15735024      -0.01669015      -0.79287708      -0.06322022      -0.07596160      -0.08526701
Li      10.24855207       6.00311490       8.15485188       0.06422103       0.14461438      -0.79287708      -0.03418720       0.09270984      -0.08526359
Li      11.75637615       8.35641100       8.15485188       0.09312922      -0.12792423      -0.79287708       0.09739167      -0.01675928      -0.08526309