10
Lattice="4.133670091267252 -0.005718930238245088 -0.02852327145708287 -0.4896202045089403 5.934223589865177 0.013523706705234735 -1.6939289801516215 -2.1642766816018155 5.622155635199207" Properties=species:S:1:pos:R:3:minim_forces:R:3:REF_forces:R:3 config_type=buildcell_minim_mid buildcell_config_i=1 RSS_min_vol_per_atom=8.0 buildcell_type=narrow gap_rss_group=ALL gap_rss_iter=1 buildcell_symmetry="2 P-1 -P 1 @ 0.01" minim_pressure_GPa=0.0497619846129727 minim_config_type=minim_mid minim_energy=-36.967790848554515 minim_stress="1.115261835257675 1.0514727812283444 0.9843017657993872 -0.012804527310586379 0.06502706153856762 0.015991635880006808" E_per_atom_dist_to_nearby=0.2630357822242759 vasp_rundir=run_iter_1/run_VASP_ujsme347 REF_energy=-16.68270686 REF_stress="0.7362096305593527 0.7066472500670259 0.7584494260646747 -0.012571232845691517 0.009684242179400051 0.0018279109443861885" pbc="T T T"
Li       1.70350805       2.46950299       1.16268793       0.50622763       0.21225664       1.46679397      -0.35857723      -0.26118851       0.91346280
Li       0.24661286       1.29472499       4.44446814      -0.50622763      -0.21225664      -1.46679397       0.35857725       0.26118838      -0.91346274
Li      -0.74317446      -2.61961723       3.54145260      -1.17205305       2.41185047       3.86387959      -0.27500203      -0.44134565      -0.60657531
Li       2.69329537       6.38384521       2.06570347       1.17205305      -2.41185047      -3.86387959       0.27500207       0.44134566       0.60657549
Li       1.21987056      -1.08499781       2.79681618       0.00000000       0.00000000       0.00000000      -0.00000000      -0.00000005       0.00000016
Cu       0.25961664      -1.08567776       4.99655217      -3.92085043      -1.45888116       1.44392827       2.16794130      -1.00682668       0.20366222
Cu       1.69050427       4.84990574       0.61060390       3.92085043       1.45888116      -1.44392827      -2.16794134       1.00682695      -0.20366224
Cu       2.41206920      -0.06823938       5.01942657       2.59333123      -1.82541160       2.77982369      -0.95457011       0.79370520      -1.87905736
Cu      -0.46194829       3.83246736       0.58772950      -2.59333123       1.82541160      -2.77982369       0.95457003      -0.79370576       1.87905718
Cu       4.13367009      -0.00571893      -0.02852327       0.00000000       0.00000000       0.00000000       0.00000007       0.00000046      -0.00000021
16
Lattice="4.85616482311759 -6.929400067512e-16 1.9920525694246453e-48 -2.428082411558794 4.2055621017841975 2.5896849207020092e-46 4.8064187635607576e-48 1.4877425246600053e-45 11.811588556095334" Properties=species:S:1:pos:R:3:minim_forces:R:3:REF_forces:R:3 config_type=buildcell_minim_mid buildcell_config_i=3 RSS_min_vol_per_atom=8.0 buildcell_type=narrow gap_rss_group=ALL gap_rss_iter=1 buildcell_symmetry="143 P3 P 3 @ 0.01" minim_pressure_GPa=0.2428479837971257 minim_config_type=minim_mid minim_energy=-68.00479552659561 minim_stress="0.8000202706938906 0.8000202706938914 0.0925723623713455 5.949847753369367e-47 5.71365056780646e-47 -3.4373639072704394e-16" E_per_atom_dist_to_nearby=0.11946466301952441 vasp_rundir=run_iter_1/run_VASP_zguousrs REF_energy=-24.82883222 REF_stress="0.6770178633291913 0.6770261464172278 0.7424414733414639 5.108675219535447e-08 -1.4788631722867792e-07 6.078318628277915e-06" pbc="T T T"
Li       1.93797291       2.77448358       9.21598287       2.87476318       0.55580574       0.85845384      -0.04660586       0.29770098      -0.21655011
Li       3.86186922       1.13998654       9.21598287      -0.95603970      -2.76752081       0.85845384       0.28116710      -0.10848533      -0.21654936
Li       1.48440511       0.29109198       9.21598287      -1.91872348       2.21171507       0.85845384      -0.23446973      -0.18920246      -0.21655046
Li       0.71678125       1.43645628       1.92162727       3.32356104      -1.98490127      -0.73568780       0.23943237       0.07089454      -0.03581996
Li      -1.54246540       2.86658320       1.92162727      -3.38075544      -1.88583766      -0.73568780      -0.05828702      -0.24276804      -0.03582158
Li       0.82568416       4.10808473       1.92162727       0.05719440       3.87073892      -0.73568780      -0.18107107       0.17189988      -0.03581988
Li       0.00000000       0.00000000       4.08900967       0.00000000       0.00000000       1.70908814       0.00007431       0.00001187       0.53117811
Li       2.42808241       1.40185404       4.79225974      -0.00000000      -0.00000000      -0.52054693       0.00002677       0.00000681      -0.00265537
Cu       0.18238896       4.01636350       7.07048627       4.78586685      -3.82662924      -2.37174087      -0.56810273       3.75824329       0.06496835
Cu       0.95899593       2.03942689       7.07048627      -5.70689156      -2.23136765      -2.37174087       3.53850385      -1.38738169       0.06488196
Cu      -1.14138488       2.35533383       7.07048627       0.92102471       6.05799690      -2.37174087      -2.97064909      -2.37112280       0.06495505
Cu       1.95912788       2.56730002      -0.19975984      -2.32735739       0.52913204      -2.25832541       0.32068412       3.49788972       0.75233748
Cu       3.67186551       1.22525759      -0.19975984       1.62192048       1.75098460      -2.25832541       2.86912999      -2.02680294       0.75224114
Cu       1.65325385       0.41300450      -0.19975984       0.70543690      -2.28011664      -2.25832541      -3.18989940      -1.47110744       0.75236933
Cu       0.00000000       0.00000000       6.75140623       0.00000000       0.00000000       5.68785477       0.00017342       0.00031976      -0.45962416
Cu       0.00000000       2.80370807      10.67836060       0.00000000       0.00000000       6.64550477      -0.00010703      -0.00009615      -1.76354055
16
Lattice="4.815511604609901 1.904296337503159e-15 -8.82674713138961e-48 -2.4077558023049512 4.170355381810937 1.0464801856813538e-45 -2.1503749413918344e-47 -8.732988801222941e-46 11.753980127488818" Properties=species:S:1:pos:R:3:minim_forces:R:3:REF_forces:R:3 config_type=buildcell_minim_mid buildcell_config_i=3 RSS_min_vol_per_atom=8.0 buildcell_type=narrow gap_rss_group=ALL gap_rss_iter=1 buildcell_symmetry="143 P3 P 3 @ 0.01" minim_pressure_GPa=0.2428479837971257 minim_config_type=minim_mid minim_energy=-71.52054796215535 minim_stress="0.6985711211542552 0.698571121154255 0.2024893082736775 4.081362182720848e-46 1.4257946122661893e-46 -9.682781985704246e-17" E_per_atom_dist_to_nearby=0.09170289691610467 vasp_rundir=run_iter_1/run_VASP_403kdka9 REF_energy=-24.36438218 REF_stress="0.665910081803136 0.6659171203904264 0.7576923607048055 -7.469838121857083e-08 -7.431140765276608e-08 6.3127684355734675e-06" pbc="T T T"
Li       1.94547366       2.75381141       9.13901133       2.71088647       1.41453487       1.25429405      -0.11142502       0.28338373      -0.15093473
Li       3.81988961       1.10862006       9.13901133      -0.13042010      -3.05496398       1.25429405       0.30110613      -0.04523540      -0.15093251
Li       1.45790414       0.30792391       9.13901133      -2.58046637       1.64042911       1.25429405      -0.18975213      -0.23818458      -0.15093572
Li       0.68388036       1.42246148       1.95679519       2.62776326      -1.75102720      -0.59187551       0.35493416       0.03872962      -0.22899460
Li      -1.51780820       2.86686689       1.95679519      -2.83031567      -1.40019614      -0.59187551      -0.14394861      -0.32678907      -0.22899800
Li       0.83392785       4.05138241       1.95679519       0.20255241       3.15122334      -0.59187551      -0.21105743       0.28802220      -0.22899324
Li       0.00000000       0.00000000       4.08021353      -0.00000000      -0.00000000       2.15902217       0.00004774      -0.00000764       0.78107931
Li       2.40775580       1.39011846       4.77647565       0.00000000       0.00000000      -0.60958392      -0.00002675      -0.00001336       0.02059524
Cu       0.15783995       3.95760408       7.00380974       3.43704242      -2.11616907      -2.95382070      -0.60865221       5.13908119      -0.02354128
Cu       0.94070989       2.05485995       7.00380974      -3.55117739      -1.91848151      -2.95382070       4.75479002      -2.04268066      -0.02358030
Cu      -1.09854983       2.32824675       7.00380974       0.11413497       4.03465059      -2.95382070      -4.14627188      -3.09663817      -0.02354069
Cu       1.96767718       2.54123240      -0.20942507      -2.59904742       0.08546259      -1.78087871       0.49137218       3.84436462       0.76041049
Cu       3.62468903       1.19568076      -0.20942507       1.37353648       2.20810980      -1.78087871       3.08377775      -2.34766164       0.76029312
Cu       1.63090120       0.43344223      -0.20942507       1.22551094      -2.29357239      -1.78087871      -3.57492542      -1.49649425       0.76040527
Cu       0.00000000       0.00000000       6.75879591      -0.00000000       0.00000000       6.94913597       0.00017668       0.00027821      -0.33124195
Cu       0.00000000       2.78023692      10.65816588      -0.00000000       0.00000000       3.71826837      -0.00014521      -0.00015481      -1.54109040
24
Lattice="4.40436 0.0 0.0 0.0 6.74416 0.0 -1.9716584491106357 0.0 13.421754453127605" Properties=species:S:1:pos:R:3:minim_forces:R:3:REF_forces:R:3 config_type=buildcell_minim_initial buildcell_config_i=5 RSS_min_vol_per_atom=8.0 buildcell_type=narrow gap_rss_group=ALL gap_rss_iter=1 buildcell_symmetry="3 P2 P 2y @ 0.01" minim_pressure_GPa=0.39668633746342813 minim_config_type=minim_initial minim_energy=-28.4315743876814 minim_stress="0.806941394660059 0.8924722981274559 0.6406374824381675 0.0 -0.054349686614177474 0.0" E_per_atom_dist_to_nearby=0.32711802542023927 vasp_rundir=run_iter_1/run_VASP_mmep1b4z REF_energy=-40.06575835 REF_stress="0.6368823473659816 0.6488906497779799 0.6427476140900134 8.61952410284478e-09 -0.009807087012762882 -3.246833047284471e-08" pbc="T T T"
Li      -0.05251120       2.08048973      11.23286092       0.04987753       0.62624391       2.30275986      -0.15558036      -0.01564110       0.35492266
Li       2.48521275       2.08048973       2.18889354      -0.04987753       0.62624391      -2.30275986       0.15556888      -0.01563987      -0.35492334
Li       2.31743607       1.81230484       4.94968937      -0.09363898      -1.17280084       1.96423411      -0.31864981       0.29237587       0.00599834
Li       0.11526548       1.81230484       8.47206509       0.09363898      -1.17280084      -1.96423411       0.31863395       0.29237453      -0.00599922
Li       2.31744091       0.59589307       7.49192804      -0.23398496       2.51079546      -1.26752472      -0.14774169      -0.20589007      -0.05143490
Li       0.11526064       0.59589307       5.92982642       0.23398496       2.51079546       1.26752472       0.14772887      -0.20588944       0.05145298
Li      -0.58560966       5.35584229      12.34633504      -4.95720740      -2.52095122       3.17269284      -0.25349444      -0.80612339      -0.17154749
Li       3.01831121       5.35584229       1.07541942       4.95720740      -2.52095122      -3.17269284       0.25348435      -0.80612396       0.17154422
Li      -1.24340759       6.74624260       9.98708051       2.73766469      -0.60687852      -2.16689892      -0.06506797       0.07177218       0.04670989
Li       3.67610914       6.74624260       3.43467395      -2.73766469      -0.60687852       2.16689892       0.06505582       0.07177179      -0.04671105
Li       1.74512403       0.34744024      12.25998618      -3.84764974       1.22585493      -1.65975975      -0.23484435       0.41694056       0.12714259
Li       0.68757752       0.34744024       1.16176828       3.84764974       1.22585493       1.65975975       0.23485814       0.41693885      -0.12715870
Cu       1.47865003       5.62622713       3.02639222       0.48005194       3.64240017       0.02847594       0.36008347       1.08162160      -0.72266737
Cu       0.95405152       5.62622713      10.39536224      -0.48005194       3.64240017      -0.02847594      -0.35998889       1.08162412       0.72266195
Cu      -1.44080497       4.00129799       3.92949376      -1.32839261      -3.54562524       2.89329439      -0.55141290       0.01302106       0.19721892
Cu       3.87350652       4.00129799       9.49226070       1.32839261      -3.54562524      -2.89329439       0.55137726       0.01302227      -0.19721958
Cu       0.33657054       5.05533871       4.93941904      -4.47642711      -0.58503071       7.96097693       0.54777812       1.48077706       1.44826183
Cu       2.09613101       5.05533871       8.48233542       4.47642711      -0.58503071      -7.96097693      -0.54781648       1.48078068      -1.44826646
Cu       0.22834863       3.08587201       6.12236551       2.47836876       1.72868618       5.02017857      -1.00490157      -0.78172410      -0.30110050
Cu       2.20435292       3.08587201       7.29938895      -2.47836876       1.72868618      -5.02017857       1.00501611      -0.78172089       0.30111627
Cu       1.69323127       3.44037878      10.06964712      -1.01042409      -4.39726152       3.32895363       0.02295064      -1.65526204      -0.04250474
Cu       0.73947028       3.44037878       3.35210734       1.01042409      -4.39726152      -3.32895363      -0.02307163      -1.65525999       0.04250677
Cu       2.19544328       2.85124606      12.23577065      -2.20300586       3.09456741      -3.64362564       0.19508685       0.10812724       1.10285662
Cu       0.23725827       2.85124606       1.18598381       2.20300586       3.09456741       3.64362564      -0.19505238       0.10812700      -1.10285973
16
Lattice="5.824811194599182 0.005790705460458318 0.0015322062640877967 -2.525315193715747 6.407790674799056 0.001339380620413902 -1.0033889335733235 -3.3396517850954397 7.283617218605863" Properties=species:S:1:pos:R:3:minim_forces:R:3:REF_forces:R:3 config_type=buildcell_minim_mid buildcell_config_i=10 RSS_min_vol_per_atom=8.0 buildcell_type=wide gap_rss_group=ALL gap_rss_iter=1 buildcell_symmetry="1 P1 P 1 @ 0.01" minim_pressure_GPa=0.0035290065855197606 minim_config_type=minim_mid minim_energy=-14.678695659297542 minim_stress="0.8168309554109789 0.6819088607312958 0.6039059949825342 0.0013938044747242068 -0.025689740957701154 -0.09540044836326339" E_per_atom_dist_to_nearby=0.19750749197836237 vasp_rundir=run_iter_1/run_VASP_88vo455i REF_energy=-26.06081206 REF_stress="0.652075801629373 0.6435198506673903 0.6687401862005751 0.0028763921593730948 -0.005235133867957637 0.006085762570378409" pbc="T T T"
Li       1.02546561       2.39707645       6.33978088       3.38333611      -1.45773237       1.07553261       0.00033035      -0.39955610       0.52901266
Li       2.33000011      -0.71709256       3.73190108      -1.50801725      -3.54096826      -4.30731503       0.18640001      -0.13901548       0.19510099
Li       3.98613790       1.90924206      -0.24085705      -2.38648456       2.78873982       3.00172110      -0.15808594       0.05260937      -0.25651161
Li      -0.88713712       4.31543345       0.28806968       3.06128962      -1.76522155      -0.55298957      -0.32316424       0.42197709       0.46800388
Li       1.77458286       3.48148267       3.97913265      -2.45161747       2.11852476      -0.54728262      -0.00793048       0.26018602       0.32399697
Li       3.31484627       1.50639176       4.98241304       1.38900167      -0.38327603      -3.47124490       0.34666577      -0.16284624      -0.50698955
Li       0.84526225       0.44522715       1.55297136      -1.29471949      -0.59330607       1.61170628      -0.18191979       0.34939273      -0.00043671
Li      -0.11746494      -1.06929182       6.83303247       3.92660507       2.90316068       0.70544762       0.26050404      -0.25332533      -0.14813084
Cu      -1.62703807       3.80922908       3.11981569       4.89865683      -3.50504364       1.74381761       0.72835314       0.91919006       0.74524576
Cu       2.96699678       2.36529058       1.92347761       5.46988258      -1.93307447       2.13554932      -0.55927397      -0.05348217      -0.21484386
Cu       2.47944279       5.27861178       2.38151445      -1.03694221       5.27829037      -0.72470241       1.16086824       0.30328953       0.80099293
Cu       0.41192774       0.37097010       4.96172406      -3.37778127      -3.89243961      -1.04882732       0.09161587      -0.51049688       0.13921775
Cu       3.26352239       0.13516549       1.61065455      -4.67682879      -1.52991405      -0.57444890      -0.01343678      -0.82914995      -1.12965951
Cu       1.05680233       3.67054076       1.58866200      -1.82114910       2.46264227      -2.73870371      -1.22552128      -0.03622106       0.07465406
Cu      -0.18078069       2.00539638       3.46701443      -5.80812912      -0.57632911       2.07692720      -0.10846804       0.11885712      -0.60410116
Cu       1.16851629      -3.16113826       6.51575188       2.23289738       3.62594727       1.61481272      -0.19693690      -0.04140872      -0.41555176
8
Lattice="5.027040259509622 0.0021080033322428593 0.0016383268266483924 1.6497219977450965 4.748637230255077 0.001638326826705035 1.6497219977451385 1.1738337558770586 4.601268579668313" Properties=species:S:1:pos:R:3:minim_forces:R:3:REF_forces:R:3 config_type=buildcell_minim_last_unconverged buildcell_config_i=15 RSS_min_vol_per_atom=8.0 buildcell_type=wide gap_rss_group=ALL gap_rss_iter=1 buildcell_symmetry="146 R3 R 3 @ 0.01" minim_pressure_GPa=0.07779915298905023 minim_config_type=minim_last_unconverged minim_energy=-24.04647622040357 minim_stress="0.6621275316132661 0.6745024755667202 0.6795272594306548 -0.00986243915197305 -0.013860806727504666 -0.017834431014061045" minim_n_steps=20 E_per_atom_dist_to_nearby=0.9942593070586234 vasp_rundir=run_iter_1/run_VASP_kytg6lyu REF_energy=-12.64717763 REF_stress="0.7579200345737563 0.7392857180368614 0.7317193448963353 0.014850949995837066 0.020871717622057563 0.02685519753653367" pbc="T T T"
Li       6.31157984       2.63029543       3.14164402       1.15069305       1.48139699      -0.24087237      -0.58183161      -0.13098150      -0.22137192
Li       4.55375675       4.30358614       4.16735732       1.77672586      -0.08491641       0.64240598      -0.31445778      -0.33961834      -0.43642834
Li       5.55844098       4.75219918       1.77334656       0.50213829       1.04376694       1.49501129      -0.42393076      -0.46877385      -0.07228332
Li       2.96033280       2.10637826       1.63706384      -0.85669407      -0.60956720      -0.47375176       0.60197506       0.42833089       0.33289782
Cu       2.56421987       5.12505072       2.64752669      -0.88226050      -0.49654938       0.97763296       0.84691711      -0.76001119       1.50687610
Cu       5.68240744       2.74893348       0.06615441      -0.75829976       0.78179165      -0.89134413      -0.44042805       1.71925050       0.64477921
Cu       4.45961478       1.16694262       4.31286993       0.49005207      -1.10386829      -0.72251978       1.47991490       0.38299402      -1.10847438
Cu       1.00054314       0.71192074       0.55330029      -1.42235493      -1.01205430      -0.78656218      -1.16815887      -0.83119052      -0.64599517
16
Lattice="7.44413920991334 -0.01467497954002588 -0.010656005589717684 3.32393342308556 6.660847583490287 -0.010656005589715918 3.323933423085562 2.051568187436475 6.337039691625904" Properties=species:S:1:pos:R:3:minim_forces:R:3:REF_forces:R:3 config_type=buildcell_minim_mid buildcell_config_i=26 RSS_min_vol_per_atom=10.0 buildcell_type=narrow_even gap_rss_group=ALL gap_rss_iter=1 buildcell_symmetry="146 R3 R 3 @ 0.01" minim_pressure_GPa=0.17697647556138874 minim_config_type=minim_mid minim_energy=-28.540848192355444 minim_stress="0.015839674747392916 0.008457715478668934 0.006310255750081185 0.003298600352795583 0.005344364388765194 0.00736002223340188" E_per_atom_dist_to_nearby=0.01778022432998183 vasp_rundir=run_iter_1/run_VASP_p80pe5ru REF_energy=-27.91838232 REF_stress="-0.01251172269009307 -0.013030039471912884 -0.013180822411111794 0.00023161008916402234 0.00037525098805885656 0.0005167782498202836" pbc="T T T"
Li       7.48310381       7.42083918       5.19447944       0.05629125      -0.27360662       0.02516938      -0.36133729       0.37640859       0.11345450
Li       9.98795966       5.98016147       1.58954211      -0.21934104       0.07747209       0.15668557       0.17448917      -0.04432110      -0.50270177
Li       9.82302122       3.44520795       5.44858788      -0.02907417       0.07755351      -0.26796068       0.03860146      -0.42358670       0.32280690
Li       7.56305142       3.67417609       0.16976511       0.06204679       0.36006158      -0.12643113       0.36312104       0.28669815      -0.19502272
Li       6.67467998       1.74418827       4.80984317       0.34967105      -0.15301485      -0.06160835       0.41905750      -0.12475675       0.24680660
Li       4.55123778       6.17839361       3.44119514       0.01997118       0.05939647       0.38151302       0.07633516       0.36794260       0.33298344
Li       8.53401213       3.45705310       3.17783232      -0.15253858      -0.08651689       0.30097957      -0.08784570      -0.15593457      -0.07765800
Li       6.91585641       4.90330759       4.79663447      -0.14571675       0.25599858      -0.18593884      -0.17876832      -0.07651292       0.01583814
Li       7.48326895       5.79422344       2.30366187       0.16351376      -0.25264566      -0.17542895      -0.14853235      -0.02378561      -0.12424013
Li       4.20432548       1.16710901       0.51987131       0.01764097       0.00899494      -0.19522706       0.16809535      -0.06041870      -0.03961338
Li       2.92798222       1.49566457       2.91524784       0.01594860      -0.18200682       0.07158824       0.02134552       0.01722425       0.18089556
Li       2.64951808       3.37467663       0.94888037      -0.15554532       0.09773945       0.06898093       0.02496514       0.17552838      -0.04519008
Li       5.34487068       4.72524370       1.16289224       0.29383087      -0.14515644      -0.20866292      -0.15700467      -0.28439005       0.04994907
Li       6.61985885       1.92897234       2.16896834       0.00196379      -0.09697682       0.37621646      -0.32459634       0.04351576      -0.02768886
Li       4.69183993       3.62640142       4.13324810      -0.08580664       0.37174016      -0.07344152      -0.10661135      -0.12217681      -0.28588441
Li       9.42140448       5.81499424       4.22246661      -0.19285575      -0.11903268      -0.08643371       0.07868567       0.04856547       0.03526515
10
Lattice="3.042567119859584 0.0 0.0 0.0 10.11742974631445 -4.362427352270241e-18 0.0 -5.058714873157225 8.761951181312662" Properties=species:S:1:pos:R:3:minim_forces:R:3:REF_forces:R:3 config_type=buildcell_minim_mid buildcell_config_i=31 RSS_min_vol_per_atom=10.0 buildcell_type=wide_even gap_rss_group=ALL gap_rss_iter=1 buildcell_symmetry="156 P3m1 P 3 -2\" @ 0.01" minim_pressure_GPa=0.033295067287627184 minim_config_type=minim_mid minim_energy=-21.510993782452392 minim_stress="-0.09739994355443876 -0.09203636569623606 -0.09203636569623613 3.410763552712341e-18 -3.945464802957942e-32 -2.3987735402953347e-48" E_per_atom_dist_to_nearby=0.0 vasp_rundir=run_iter_1/run_VASP_b7oou0w_ REF_energy=-16.88351878 REF_stress="0.005720842365945477 0.0022139264510231457 0.0022140280690332243 1.3413003111523122e-08 4.075705459201768e-09 -2.608950814619202e-09" pbc="T T T"
Li       1.07974485      -2.11507858       8.61766588       0.06891487       0.19352548      -0.06844438      -0.02586617      -0.01537271       0.26762258
Li       1.07974485       3.46194199       6.28483002       0.06891487      -0.15603731      -0.13337579      -0.02586625       0.23945177      -0.12052063
Li       1.07974485      -1.34686341       2.62140646       0.06891487      -0.03748816       0.20182017      -0.02586626      -0.22411596      -0.14710575
Li       1.07974485      -3.46194199       6.28483002       0.06891487       0.15603731      -0.13337579      -0.02586579      -0.23945073      -0.12049511
Li       1.07974485       1.34686341       2.62140646       0.06891487       0.03748816       0.20182017      -0.02586618       0.22411126      -0.14711003
Li       1.07974485       2.11507858       8.61766588       0.06891487      -0.19352548      -0.06844438      -0.02586606       0.01535672       0.26762646
Li       2.62022418       5.05871488       1.32401110      -0.08645347      -0.00000000      -0.50829199      -0.00846722      -0.00000675       0.06010233
Li       2.62022418       6.44144507       3.71897004      -0.08645347       0.44019378       0.25414600      -0.00846714      -0.05204921      -0.03004932
Li       2.62022418       3.67598468       3.71897004      -0.08645347      -0.44019378       0.25414600      -0.00846723       0.05205158      -0.03004436
Li       2.22731596      10.11742975       0.00000000      -0.15412884       0.00000000       0.00000000       0.18059829       0.00002404      -0.00002617
20
Lattice="7.28830153752265 1.4278928450627617e-15 3.644618556177276e-48 -3.644150768761327 6.311854281935799 3.0432970547351585e-47 -7.777864254113137e-48 -2.37565067812597e-47 8.902331783564769" Properties=species:S:1:pos:R:3:minim_forces:R:3:REF_forces:R:3 config_type=buildcell_minim_mid buildcell_config_i=38 RSS_min_vol_per_atom=10.0 buildcell_type=wide_even gap_rss_group=ALL gap_rss_iter=1 buildcell_symmetry="173 P6_3 P 6c @ 0.01" minim_pressure_GPa=0.1115641526141717 minim_config_type=minim_mid minim_energy=-37.779537992897694 minim_stress="0.012907436724868908 0.012907436724868906 -0.00891494315041288 -2.2462582032534616e-31 -1.2968777783177907e-31 -2.3710563211981e-18" E_per_atom_dist_to_nearby=0.0140342562614304 vasp_rundir=run_iter_1/run_VASP_2ij7zc6c REF_energy=-32.80108101 REF_stress="-0.029736928913748885 -0.02973693002473751 -0.023698679032678097 -1.3013546527466593e-08 -3.1457205994451624e-09 -1.3038512563970127e-08" pbc="T T T"
Li       4.91116304      -0.64706788       5.47067356       0.48242987       0.12050074      -0.03625493      -0.84521780      -0.14447437      -0.02392281
Li       0.62819204       2.38219502       5.47067356      -0.13685824      -0.47804689      -0.03625493       0.29749293       0.80421771      -0.02392304
Li       5.39309616       4.57672526       5.47067356      -0.34557163       0.35754615      -0.03625493       0.54772458      -0.65974112      -0.02392382
Li      -1.26701298       6.95892091       1.01950767      -0.48242987      -0.12050074      -0.03625493       0.84519496       0.14446177      -0.02392687
Li       3.01595802       3.92965801       1.01950767       0.13685824       0.47804689      -0.03625493      -0.29749238      -0.80419726      -0.02392564
Li      -1.74894611       1.73512777       1.01950767       0.34557163      -0.35754615      -0.03625493      -0.54770987       0.65974350      -0.02392722
Li       0.64574680       2.42012455      -0.31211730      -0.08934491      -0.30666804      -0.04983133       0.28271347       0.72639876       0.09115201
Li       5.41716671       4.54255763      -0.31211730      -0.22090986       0.23070898      -0.04983133       0.48771856      -0.60803725       0.09115305
Li       4.86953772      -0.65082977      -0.31211730       0.31025476       0.07595906      -0.04983133      -0.77043736      -0.11835971       0.09114910
Li       2.99840325       3.89172848       4.13904859       0.08934491       0.30666804      -0.04983133      -0.28272230      -0.72639566       0.09115413
Li      -1.77301666       1.76929541       4.13904859       0.22090986      -0.23070898      -0.04983133      -0.48771979       0.60804607       0.09115360
Li      -1.22538767       6.96268280       4.13904859      -0.31025476      -0.07595906      -0.04983133       0.77043312       0.11835278       0.09115620
Li       0.50591562       1.34216404       2.62903593      -0.08403739      -0.19636038       0.03998729       0.04140941       1.23966340       0.05369682
Li      -2.73476042       5.20263523       2.62903593      -0.12803438       0.17095871       0.03998729       1.05288313      -0.65569778       0.05369748
Li       2.22884372       6.07890741       2.62903593       0.21207177       0.02540168       0.03998729      -1.09428246      -0.58397307       0.05369895
Li       3.13823443       4.96968899       7.08020182       0.08403739       0.19636038       0.03998729      -0.04141859      -1.23967891       0.05370999
Li       6.37891047       1.10921780       7.08020182       0.12803438      -0.17095871       0.03998729      -1.05288275       0.65570589       0.05371135
Li       1.41530633       0.23294562       7.08020182      -0.21207177      -0.02540168       0.03998729       1.09430407       0.58397038       0.05370880
Li       7.28830118      -0.00000062       9.38337729      -0.00000000       0.00000000       0.13829691       0.00000487      -0.00000143      -0.36278625
Li      -0.00000036      -0.00000062       4.93221139      -0.00000000       0.00000000       0.13829691       0.00000419      -0.00000369      -0.36280586
20