14
Lattice="3.91167 0.0 0.0 -0.40155647574220993 4.223905432095929 0.0 -1.089874778137156 -0.2576481904475466 14.451982645091972" Properties=species:S:1:pos:R:3:REF_forces:R:3 config_type=buildcell buildcell_config_i=13 RSS_min_vol_per_atom=8.0 buildcell_type=wide gap_rss_group=ALL gap_rss_iter=0 buildcell_symmetry="1 P1 P 1 @ 0.01" vasp_rundir=run_iter_0/run_VASP_t3xfts2r REF_energy=-22.60267339 REF_stress="0.6440319339791479 0.6210439475163262 0.6430933060148671 0.011815600948257204 -0.01490769139926274 -0.0036680724045676954" pbc="T T T"
Li       0.76263684       3.06823064       5.23806993       0.13367201      -0.06205612      -0.70522131
Li       1.82675920       2.60337582       0.35606502      -0.24128074      -0.19406648      -0.44314855
Li       2.46222723       0.75791583       9.90372386      -0.42565442      -0.21076507       0.48008854
Li      -0.23628988       0.80926138       3.97528662      -0.61123579       0.01595883      -0.24021597
Li      -1.34706345       1.13522584      13.11700084      -0.46499972       0.29200046       0.19458489
Li       3.90636739       0.08018114       1.16416102       0.10524949       0.08686903       0.09470021
Li       3.25735603       2.76997057       8.98943824       0.68672280       0.33800466      -0.22242083
Cu       0.29044359      -0.46388209      12.71897464       0.89580591      -0.80803795       1.50308844
Cu       1.61086122       1.44273426       2.46013411       0.33963797       0.15763409       0.16161354
Cu       1.90486948       3.14443901      11.75362023       0.60321311       0.61593697      -1.10711977
Cu       1.30848118       4.18015465       7.68298912       1.31941888      -1.80426165       1.16634003
Cu       1.94753629       2.01123397       6.81864361       1.02297969       1.13817478       0.07990634
Cu       0.11490510       0.60330280       6.35862324      -2.25487231       0.58104776      -0.24775490
Cu       0.50501922       1.45952203      11.53160081      -1.10865690      -0.14643931      -0.71444066
24
Lattice="4.50388 0.0 0.0 -1.7059331548262073 9.501042834955786 0.0 0.0 0.0 10.83795" Properties=species:S:1:pos:R:3:REF_forces:R:3 config_type=buildcell buildcell_config_i=14 RSS_min_vol_per_atom=8.0 buildcell_type=wide gap_rss_group=ALL gap_rss_iter=0 buildcell_symmetry="1 P1 P 1 @ 0.01" vasp_rundir=run_iter_0/run_VASP_64d853xp REF_energy=-36.11255567 REF_stress="0.5472701667636267 0.5541505730602158 0.5484833277876776 0.004280215633514755 -0.0016064653213544134 -0.002526025924644425" pbc="T T T"
Li       2.58545159       4.69282582       9.55272754      -0.35178912       0.00509540      -0.10138937
Li       2.68808316       4.68323691       1.32657761      -0.50633932       0.26718160      -0.07725883
Li       2.69368836       2.78345946       3.14039828      -0.67464120      -0.33251106       0.35262791
Li       2.59002308       2.66037422       7.60403130      -0.30485434       0.11991630      -0.36290337
Li       0.45035819       8.07009950       9.31445681      -0.67395076       0.51660048       0.08902756
Li       0.36993321       8.16014441       1.38242614      -0.03381512       0.31499820      -0.22605038
Li       0.19304920       3.15148334       9.16648128       0.63998712       0.74626679      -0.00625306
Li       0.26127398       3.29946653       1.67555878       0.40345046      -0.47288060      -0.18114078
Li       1.19139842       7.66165213       3.95388650       0.10347514      -0.41385510      -0.29391663
Li       1.28340649       7.59049601       6.73979477       0.14746759      -0.27069818       0.30165301
Li       1.38482168       0.57716769       6.76761875       0.04725553      -0.54426117       0.15493143
Li       1.33922125       0.47419436       3.94689716       0.03296309       0.09340084      -0.00470280
Cu       3.26516876       1.24712168       1.01714967      -1.09163923       0.45248256       1.19783307
Cu       3.26396852       1.51693535       9.70511856       0.77828856      -0.29719236      -1.48565301
Cu      -2.00278509       9.05137116       2.30944596      -0.80240287       0.61763365       2.20300571
Cu      -2.06320469       9.03541766       8.48636406       0.10216629       1.31413604      -0.69370016
Cu       0.31819917       5.59733530       1.18240268       0.53851280       0.68849398       0.81260410
Cu       0.24532911       5.70594711       9.74912335       0.31333392       0.14446612      -0.72114016
Cu       1.09544706       1.06941812       9.60403830      -0.89737510      -0.46732297       0.15302639
Cu       0.96142587       1.00941645       1.24754446       1.79023438       0.78209874      -0.76335616
Cu       0.23590857       2.59833293       6.45829243       0.10082063       0.05488521       2.63113946
Cu       0.16420534       2.69815141       4.40464807       0.52623319       0.07875289      -2.56814447
Cu       2.67089954       7.29490016       1.18616114      -0.22793356      -2.25984863       0.54199846
Cu       2.61358858       7.23068643       9.84175612       0.04055190      -1.13783873      -0.95223789
16
Lattice="5.15358 0.0 0.0 0.0 5.15358 0.0 0.0 0.0 11.59169" Properties=species:S:1:pos:R:3:REF_forces:R:3 config_type=buildcell buildcell_config_i=27 RSS_min_vol_per_atom=10.0 buildcell_type=narrow_even gap_rss_group=ALL gap_rss_iter=0 buildcell_symmetry="1 P1 P 1 @ 0.01" vasp_rundir=run_iter_0/run_VASP_m7kt1jjw REF_energy=-27.52780073 REF_stress="-0.024115206774586336 -0.02249253536854506 0.006810564858043896 -0.000707363979280954 0.0020361847736681195 0.00010654549428811638" pbc="T T T"
Li       3.58109254       0.94070110       8.69935150       0.14178699      -0.00362669      -0.35367306
Li       1.77446186       4.17563713       8.61116895      -0.93991262      -0.04106184      -0.39993422
Li       4.35697375       3.60816459       2.79179021      -0.63718301      -0.17269368      -0.10997678
Li       1.00878354       1.57581711       2.79216467       0.05108660      -0.40390829      -0.29111496
Li       3.55551325       5.91687331       2.21455828       0.02258925       0.37974939      -0.13073744
Li       1.56603423      -1.05590444       2.41847479       0.52104970       0.19210700      -0.26914277
Li      -1.04542374       3.39008665       8.32945994       0.46027994       0.14002218      -0.38995042
Li       6.08562370       1.62901580       8.04042024       0.20087897      -0.06290116      -0.24630678
Li       1.07797229       3.32283379       4.82206107       0.36347051      -0.16710849       0.62196270
Li       4.05873924       1.78177460       4.90799105      -0.30785503       0.04853349       0.17304291
Li       1.78166781       1.31763838      10.73165570      -0.03011179      -0.01258952       0.18129323
Li       3.20597044       4.10342393      10.61092106       0.27273899      -0.29121268       0.90196059
Li       1.46527250       0.53897369       5.54757896      -0.21755374       0.33710131       0.06448632
Li       3.72887999       4.49248595       5.69753439       0.24695319      -0.27804180       0.19314030
Li       4.40707447       1.41427577      11.32839036      -0.02345708      -0.06471028       0.11760522
Li       0.66295629       3.66312999      11.58195479      -0.12476087       0.40034107      -0.06265483
20
Lattice="7.88609 0.0 0.0 -3.9430449999999984 6.829554276530424 0.0 0.0 0.0 7.89148" Properties=species:S:1:pos:R:3:REF_forces:R:3 config_type=buildcell buildcell_config_i=32 RSS_min_vol_per_atom=10.0 buildcell_type=wide_even gap_rss_group=ALL gap_rss_iter=0 buildcell_symmetry="1 P1 P 1 @ 0.01" vasp_rundir=run_iter_0/run_VASP_r8xlsjxb REF_energy=-34.0173388 REF_stress="-0.011631806517495277 -0.008291427266843314 -0.00531256206681505 0.0013480828093231905 -0.0006469850617857675 -0.000644341195969098" pbc="T T T"
Li       6.49888861       1.88104228       5.32745245      -0.62294793      -0.09006476      -0.05469479
Li       3.17277995       4.61433623       5.23926990      -0.09351347      -0.17435383      -0.16276587
Li       2.51736213       0.37367747       5.21573616      -0.04037340       0.38982605      -0.07300304
Li      -1.52934815       6.48627851       2.58222343      -0.00196233      -0.33019792       0.11306367
Li       2.53036842       4.74335754       2.45630462      -0.46140741       0.54695746       0.34166488
Li      -0.97879679       2.09051960       2.66022114       0.35800688       0.41653945       0.18069095
Li       4.88484879      -0.50749390       5.48510296      -0.00867773      -0.03594328      -0.41724113
Li       5.69287990       4.49892561       5.19606326       0.56234030      -0.08086126       0.02922171
Li       1.08358681       2.71473796       5.22343872       0.10244596       0.47907739       0.05629214
Li      -2.76744932       4.06584471       2.52377254       0.01446717      -0.31218608      -0.08302756
Li       0.97243633       7.38104563       2.55159220      -0.32416104      -0.20371752       0.33510470
Li       1.66664222       2.41963598       2.43085755       0.24755790      -0.20487878      -0.03506795
Li      -1.22411275       5.30239786       7.53407855      -0.58044209       0.32556996       0.29429313
Li      -0.17649298       3.07601764       7.68403399       0.19972226      -0.68743331       0.35489911
Li       1.42961339       5.12846233       7.51904496       0.40110150       0.25755230       0.59012751
Li       5.31223880       1.62491770       0.33029506       0.41320007      -0.18340389      -0.60436879
Li       2.73240772       1.15488539       0.25699124      -0.38161791       0.05218439      -0.35949354
Li       3.70835767       3.75969109       0.28575047       0.16992143       0.23775821      -0.53142427
Li       0.10309995       0.09312801       6.45739862       0.02044196      -0.21157510       0.27067920
Li      -0.03092124       0.03312634       1.44771414       0.02589787      -0.19084948      -0.24495009
24
Lattice="3.54191 0.0 0.0 0.0 10.45331 0.0 0.0 -5.226654999999997 9.052832013633912" Properties=species:S:1:pos:R:3:REF_forces:R:3 config_type=buildcell buildcell_config_i=46 RSS_min_vol_per_atom=7.0 buildcell_type=narrow gap_rss_group=ALL gap_rss_iter=0 buildcell_symmetry="1 P1 P 1 @ 0.01" vasp_rundir=run_iter_0/run_VASP_t24x_7jb REF_energy=-34.68060969 REF_stress="1.1523864448777756 1.1433085842154864 1.1510708645337389 -0.006294648373388623 -0.003378074688980008 0.001891071945917637" pbc="T T T"
Li       3.25224341       4.48010642       0.62834476      -0.47117715       0.20200925      -0.34563327
Li       2.17423844       7.69485771       3.58665745      -0.51201220       0.27550367       0.30569757
Li       0.99922018       3.54450415       4.83223661      -0.67542175      -0.22307512       0.58682446
Li       3.25617700      -3.97051330       8.48770558      -0.29369679      -0.10789887      -0.15156403
Li       2.04548068      -0.39348929       1.21476872      -0.01372687       0.71660088       0.19039099
Li       0.78441915       4.02504968       8.21554970      -0.14310789      -0.21727325      -0.08251356
Cu       3.11181847       2.16971684       2.07290704       1.05088789       0.44865852      -2.92028816
Cu       1.99940670       7.63632744       0.89569400       2.09559444      -0.06330570       0.55033512
Cu       0.78690915       5.75053386       5.97322258       1.29969316       1.06141663       2.03782850
Cu       0.28857753       8.57801003       2.07506547      -0.14915628      -0.69427168      -0.08336612
Cu       2.55211051       4.49718004       6.42732430       0.37612344      -1.52867381       0.65400632
Cu       1.32587318       2.81219337       0.39783879       0.41941023      -0.32109747       2.56251834
Cu       2.63068678       7.44895568      -1.45169311      -0.11103717       5.28922529      -1.36563536
Cu       1.44884964       7.84687414       7.29727134      -0.41462656      -0.54557145       1.34855265
Cu       0.23696214       0.23190446       2.94371981       0.21179349      -0.82061179       0.63298741
Cu       0.17898045       5.92806917       3.98353355      -0.64564565       0.03375602      -1.89954831
Cu       2.64660015       3.93164768       3.26724871      -0.32530634       1.12166786       0.30538680
Cu       1.39309319       5.53018806       2.00133800       0.14030168       0.31217231       0.00848861
Cu       2.61859454       5.46864442      -1.78210449      -0.24177862      -4.32719420      -1.26068187
Cu       1.30393680       9.26934753       5.60197965       0.35238084       2.06448334      -1.63284798
Cu       0.10630407       1.04966151       5.13595612      -0.14786084      -0.61164330       2.68765593
Cu       1.89986060       1.65241853       3.89028789      -0.48965140       0.06298835      -0.44873379
Cu       0.83164335       1.28979101       8.57233329      -1.01525327      -2.31619127       0.01049620
Cu       3.13560583      -2.72446410       5.96863411      -0.29672638       0.18832579      -1.69035645
20
Lattice="3.57844 0.0 0.0 -0.5666523961487107 6.390797518216246 0.0 -0.11142924909024572 -0.761069748552244 11.589062099837323" Properties=species:S:1:pos:R:3:REF_forces:R:3 config_type=buildcell buildcell_config_i=58 RSS_min_vol_per_atom=7.0 buildcell_type=wide gap_rss_group=ALL gap_rss_iter=0 buildcell_symmetry="1 P1 P 1 @ 0.01" vasp_rundir=run_iter_0/run_VASP_u3lj7ebh REF_energy=-31.03894657 REF_stress="1.1909198054314787 1.2039700262738973 1.2009996624025137 0.00664230065015314 -0.01904791501374029 0.011879224433131863" pbc="T T T"
Li       0.22472518       3.60405295       7.99116119      -0.34444862      -0.20527801       0.15463318
Li       2.87760758       1.98843305       3.63925607      -0.18326022       0.16013894      -0.00194317
Li       2.03880999       5.79087738       7.77343858      -0.13961795      -0.49194070       0.84549155
Li       1.07372565      -0.13074790       3.72210310      -0.04933533       0.24571822      -0.03927471
Li       3.60263623      -0.19132802      -0.17249178       0.09188582       0.54168171       0.45580795
Cu       0.11943726       5.10605992       6.02828690       1.45195083       1.10092344      -0.48785844
Cu       2.63388994       0.28115436       5.73876481      -0.32706160       0.38557968      -0.84976441
Cu       1.72167868       1.71434463       7.41211027       0.83806074      -0.25289467       2.35523978
Cu       1.10166377       3.93322822       3.91937765       0.75191327      -0.59472478      -0.49995259
Cu       1.54359862       1.07478217       1.61202261       0.04040392      -2.14226605       0.05495469
Cu       1.33415888       4.68010955       9.94652039      -0.05050747      -1.92855747       0.19998253
Cu       1.59227797       0.48698512      10.13971027       0.98496237       0.97881832       1.60146018
Cu       1.22319565       5.02903013       1.19444886       0.03463514       2.29410992       0.14937184
Cu       0.95620471       1.93418594       5.42129264      -2.10770553      -1.26298831      -1.81943934
Cu       1.95227494       3.73927812       6.03705409       1.35724564       0.15700870       1.23937116
Cu       3.11162242       3.04811424      10.40916953       0.11971463       0.94044509      -0.72763657
Cu      -0.24888666       2.35924564       1.31801319      -0.55667740       1.35457274      -0.09996439
Cu       3.50722320       1.16918099       9.05726632      -0.69384630       0.75597487      -1.73818982
Cu      -0.54227313       4.48598259       2.50904166      -1.61688338      -0.21717261       0.04548524
Cu       1.47497256       3.22852510       0.09755451       0.39857146      -1.81914903      -0.83777467
8
Lattice="5.83413 0.0 0.0 2.9170657546355674 5.223731938378197 0.0 2.9170659715998966 7.048544312404656e-07 5.332846620542677" Properties=species:S:1:pos:R:3:REF_forces:R:3 config_type=buildcell buildcell_config_i=73 RSS_min_vol_per_atom=9.0 buildcell_type=wide gap_rss_group=ALL gap_rss_iter=0 buildcell_symmetry="1 P1 P 1 @ 0.01" vasp_rundir=run_iter_0/run_VASP_35j2s3ih REF_energy=-12.86635244 REF_stress="0.27925609576464494 0.29293764621009755 0.2800022921293148 -0.0023484462331757427 0.003602092444164069 0.00261168751664261" pbc="T T T"
Li       6.71842659       3.95869526       3.74884542       0.22866912      -0.38680971      -0.62361453
Li       8.06887491       1.22779589       3.66066287      -0.52751535       0.03517119      -0.30006022
Li       3.69889523       1.43739884       0.97070582      -0.18114626      -0.23250084      -0.29966857
Li       5.26447818       3.81673507       0.97108028       0.17340640       0.40119276      -0.03123703
Li       5.85832604      -0.19132795       0.42108444      -0.23011112       0.05930484       0.67893574
Li       4.31936943       2.51058329       3.29142427       0.33904949       0.29467295       0.41871949
Cu       7.20186055       2.47063566       0.57448636       0.11804378      -0.28961493       0.02246127
Cu       5.81155293       0.00675323       2.95186997       0.07960393       0.11858373       0.13446385
16
Lattice="7.13651 0.0 0.0 3.568255000000001 6.180398954361684 0.0 3.5682585286615973 2.0601350220609507 6.82433403986145" Properties=species:S:1:pos:R:3:REF_forces:R:3 config_type=buildcell buildcell_config_i=75 RSS_min_vol_per_atom=9.0 buildcell_type=wide gap_rss_group=ALL gap_rss_iter=0 buildcell_symmetry="1 P1 P 1 @ 0.01" vasp_rundir=run_iter_0/run_VASP_2imus5ue REF_energy=-25.67524677 REF_stress="0.281465633323764 0.2784482165688084 0.2957232579785251 0.0022553295517417655 0.0040369511738165545 0.0011259876386781938" pbc="T T T"
Li       9.74767156       7.35669678       3.70298170      -0.14097747       0.04103925      -0.41829891
Li      12.39113013       6.43380869       3.61479915       0.02059538       0.00725569      -0.08089451
Li      10.33539463       4.79019636       3.59126541      -0.57489914      -0.22345603       0.06861510
Li       6.17081397       2.89508692       6.38422219      -0.02257488      -0.27760444       0.30859183
Li       6.64978254       5.40166672       6.25830339      -0.10981664       0.25514468       0.40024635
Li       8.61116695       3.72509712       6.46221990       0.51592505       0.45485895      -0.12109611
Li       5.47875862       3.67337299       4.08169495      -0.22682625      -0.05306174      -0.26591753
Li       7.63269731       5.63687124       3.79265525       0.03330870       0.05181289      -0.13472240
Li       8.13026187       2.92717191       3.82003071       0.47012929       0.08014179      -0.16004753
Li      11.76274872       7.29933067       6.25800700       0.30993054       0.01833642      -0.28600303
Li      11.15543076       4.89243023       6.28582665      -0.22853221      -0.48677409       0.12994018
Li       9.06775332       6.55686003       6.16509201      -0.19877205       0.16259075       0.01157970
Cu       8.55181988       1.59524824       1.51906536      -0.01606536       0.03706518       0.31127063
Cu       4.44196777       4.15103265       1.66902079       0.24241110      -0.15068078      -0.11026685
Cu       8.44475149       6.46228715       1.50403177      -0.21001358       0.00741833       0.72232266
Cu       3.49627159       2.01406969       2.75503335       0.13617753       0.07591315      -0.37531958
12
Lattice="6.79781 0.0 0.0 -0.3681932612502046 6.787831356071682 0.0 -3.2148078913186002 -3.3939151733454906 5.348370572702579" Properties=species:S:1:pos:R:3:REF_forces:R:3 config_type=buildcell buildcell_config_i=78 RSS_min_vol_per_atom=9.0 buildcell_type=wide gap_rss_group=ALL gap_rss_iter=0 buildcell_symmetry="1 P1 P 1 @ 0.01" vasp_rundir=run_iter_0/run_VASP_x0q4zd6x REF_energy=-19.5773461 REF_stress="0.2679619480064754 0.27683829488070383 0.27139437812598 0.005280579681518218 -0.004410801935476601 0.01584003091202765" pbc="T T T"
Li      -0.95966083      -0.93024542       3.81339312       0.18357289       0.00854799       0.04258783
Li       4.22751661       4.42798794       1.57633261      -0.39293053       0.35753854      -0.04480173
Li       1.01832605       1.13423127       3.70167683      -0.13856983      -0.08424282       0.10914848
Li       2.25973190       2.43115540       1.55317333      -0.13835692       0.23783631      -0.09525233
Li       3.51371683       0.29135096       3.79365873       0.10698387      -0.02139305       0.24811340
Li       2.86561433      -0.21790878       1.41364479       0.18359157      -0.03697317      -0.06233231
Li      -0.75196008       3.13606056       4.11271539       0.43326279       0.15645942      -0.47089791
Li      -0.11605953       3.88334657       1.23974524       0.26976438      -0.33027294       0.23747007
Li       0.23599654       6.17505336      -0.11509936      -0.59535885       0.30874573      -0.07869625
Cu       1.59365661      -1.53403061       3.35296207      -0.59004449       0.39168281      -1.89270254
Cu       4.71072438       2.10517662       1.96488940       0.35952192      -0.73503820       0.19216123
Cu       5.53162865       1.18142635      -0.12208436       0.31856320      -0.25289063       1.81520206
18
Lattice="5.6833 0.0 0.0 2.808272236971879 5.065781804929321 0.0 0.2587483522924678 1.9389373609894494 7.962563636338814" Properties=species:S:1:pos:R:3:REF_forces:R:3 config_type=buildcell buildcell_config_i=87 RSS_min_vol_per_atom=6.0 buildcell_type=narrow_even gap_rss_group=ALL gap_rss_iter=0 buildcell_symmetry="1 P1 P 1 @ 0.01" vasp_rundir=run_iter_0/run_VASP_ng1tslh5 REF_energy=-23.508644 REF_stress="1.6846630243750964 1.6747798117164987 1.612826936377176 -0.007804500632243903 -0.027375788817901595 -0.04480367107975715" pbc="T T T"
Cu       2.29318597       1.89941117       5.56700464      -0.65664070      -1.06258787      -2.12321008
Cu       6.65910902       5.06806623       2.43691416      -0.03809111      -0.91027518       1.82383062
Cu       3.25022664       2.53936379       2.64149194      -2.45960344      -0.24005186      -0.69194559
Cu       5.71227124       4.49575708       5.22755128      -1.46332702      -2.79112471       0.31159993
Cu       4.27673297       1.42712786       0.71838691       0.95502464       2.87047314       0.26558042
Cu       4.44155510       5.28498017       7.10310968       0.12268792       0.60329288       0.02658745
Cu       3.43032143       3.84934776       4.72524838      -0.12315144       1.14537029      -4.99300784
Cu       5.20661912       3.02089386       3.24140531       2.60227448      -0.47469398       2.41731669
Cu       1.48164000       2.56566561       7.48126359      -1.52941038      -0.06873707       2.79049341
Cu       7.25181212       4.39008195       0.33703132       0.97038429      -1.57567635      -1.80816676
Cu       5.14061088       3.87852941       1.18252185      -0.16887294      -0.18343666      -1.40293504
Cu       3.44376795       3.39367207       6.65660770       2.34641664      -2.47004400       4.16895236
Cu       5.49154805       1.70353166       6.11997480       0.64635835       0.96240160      -0.59284126
Cu       3.29934502       5.17906716       1.72690706      -0.65675052      -0.25122485       1.04229065
Cu       7.38293620       4.66545038       6.62662448      -0.41242053       1.54728781       0.52950794
Cu       1.28383514       2.26309454       1.29379918      -0.07751945       0.18719528       0.27655999
Cu       4.16074606       1.07176538       4.39342806       0.88538774       1.68145658      -0.73632425
Cu       4.58542813       5.68895757       3.66271160      -0.94274654       1.03037493      -1.30428865
