8
Lattice="4.68379 0.0 0.0 -0.05769148352291685 4.90499073410225 0.0 -0.3458530252397051 -1.324004355671084 5.474522418686085" Properties=species:S:1:pos:R:3:REF_forces:R:3 config_type=buildcell buildcell_config_i=11 RSS_min_vol_per_atom=8.0 buildcell_type=wide gap_rss_group=ALL gap_rss_iter=0 buildcell_symmetry="1 P1 P 1 @ 0.01" vasp_rundir=run_iter_0/run_VASP_jppd9qx8 REF_energy=-13.3690101 REF_stress="0.7099239045206271 0.6920601852599447 0.6835720518335504 -0.0010797497900925557 0.006872902329895238 0.004521157758738905" pbc="T T T"
Li       3.73295809       1.92874701       4.41665176      -0.28606729      -0.01854460       0.13552840
Li       5.16106465       3.80537962       1.64326852      -0.34486692      -0.06242788      -0.34119304
Li       4.50960986       1.44497695       0.72316239      -0.17010121      -0.23728198       0.53428229
Li       1.30325237       0.91277760       3.16831185       0.06646167      -0.76826720       0.17697728
Cu       1.33291742       3.16663219       3.74376093      -1.41235544       1.00681077       2.07405373
Cu       2.67935145       2.59676326       2.19644233       1.35941152      -0.32540030      -1.99124787
Cu      -0.89144450      -0.66630584       3.95957084      -0.04273213       0.02037190      -0.37362169
Cu       1.98722241       0.51649343       0.45900767       0.83024980       0.38473929      -0.21477909
16
Lattice="5.94891 0.0 0.0 1.9167471223185049 5.753480918425273 0.0 2.820519823870363 -0.9031197624201752 8.780324573356067" Properties=species:S:1:pos:R:3:REF_forces:R:3 config_type=buildcell buildcell_config_i=12 RSS_min_vol_per_atom=8.0 buildcell_type=wide gap_rss_group=ALL gap_rss_iter=0 buildcell_symmetry="1 P1 P 1 @ 0.01" vasp_rundir=run_iter_0/run_VASP_67w7p197 REF_energy=-24.88881704 REF_stress="0.5718448058507584 0.5834587887652692 0.5902476114011712 0.011294527853592308 -0.004631252281221654 -0.0029245699751007125" pbc="T T T"
Li       1.27106530       3.10572872      -0.23550947       0.13917696       0.03678053      -0.62743321
Li       6.58238161      -0.06522612       6.32287320      -0.07880490      -0.18165674      -0.11389196
Li       6.26829960       4.46361994       1.92148016      -0.56981081      -0.25236732       0.51175690
Li       8.03416781       0.36863065       8.46283205      -0.15207439      -0.21024061      -0.06479581
Li       4.47039046       1.20528809       2.15948691      -0.39622977       0.53162698       0.03289248
Li       5.83726773       4.59511228       5.88756143       0.10660631       0.14570371       0.00377694
Li       7.25675218       2.89765630       8.72717570       0.02116733       0.46555020      -0.41436335
Li       3.17705495       1.27414736       4.58101756       0.16459462       0.41943443       0.52043968
Cu       5.66317920      -0.01183709       3.83496848      -0.77127071      -0.27640269       0.54906782
Cu       5.84901174       2.29148697       6.69005917      -0.13263568      -0.31921272      -0.26105167
Cu       1.79690805       0.23173588       2.98645424       2.24553532      -2.73820972       0.60072957
Cu       2.48586023       0.54161333       0.72362860       1.55112756       1.04503534      -0.71202705
Cu       3.71424737       4.10982263       4.60225590      -0.05840036       0.11819334      -0.35556087
Cu       2.40883987       5.40616427       1.02383177      -1.14621749      -0.26989930       0.35772132
Cu       2.80989670       3.12816552       1.47239778      -0.01202923      -0.27601037       1.27381223
Cu       6.80036162       1.89299640       2.17419952      -0.91073475       1.76167496      -1.30107303
13
Lattice="3.29092 0.0 0.0 -1.5189929716318828 7.815189519501938 0.0 0.0 0.0 10.18538" Properties=species:S:1:pos:R:3:REF_forces:R:3 config_type=buildcell buildcell_config_i=29 RSS_min_vol_per_atom=10.0 buildcell_type=narrow_odd gap_rss_group=ALL gap_rss_iter=0 buildcell_symmetry="1 P1 P 1 @ 0.01" vasp_rundir=run_iter_0/run_VASP_7ze540v0 REF_energy=-22.75575389 REF_stress="0.001212591049437438 -0.008933454623032282 -0.015395975337402702 0.0015404810917585448 -0.0002143318068319675 0.002021341559947946" pbc="T T T"
Li       0.21238185       5.84367609       3.80747331       0.08966331      -0.10550662      -0.10942216
Li       0.31501342       5.83408718       6.41926185       0.07412563      -0.11655568       0.09855787
Li      -1.08983632       8.22775481       3.49486160      -0.08894118       0.07689257       0.29793498
Li      -1.19350160       8.10466957       6.59699798      -0.10879019       0.27328009      -0.35604982
Li       1.86518247       0.29218681       1.17749987      -0.04135394       0.40739950       0.08055786
Li       1.78475749       0.38223172       8.86681308      -0.06201775       0.10587749      -0.05138035
Li       1.69853638       5.90440564       8.73602315       0.26607940       0.20339399      -0.09707624
Li       1.76676116       6.05238883       1.45344691       0.19314834      -0.33624620      -0.00690998
Li       1.70441760       3.18107771       1.49180425      -0.01762762      -0.32815648      -0.05009104
Li       1.79642568       3.10992158       8.54930702      -0.03857360      -0.33484951      -0.00021676
Li       0.05309991       3.20891605       6.44134008      -0.02865230      -0.11357611      -0.29027499
Li       0.00749947       3.10594272       3.62060583      -0.09411727       0.07172754       0.29687568
Li       0.13428273       4.38833094      10.05256140      -0.14294283       0.19631943       0.18749495
24
Lattice="6.42998 0.0 0.0 2.366566117618506 8.700422885270582 0.0 1.9565566561553223 2.8410862234911884 9.088448730775944" Properties=species:S:1:pos:R:3:REF_forces:R:3 config_type=buildcell buildcell_config_i=36 RSS_min_vol_per_atom=10.0 buildcell_type=wide_even gap_rss_group=ALL gap_rss_iter=0 buildcell_symmetry="1 P1 P 1 @ 0.01" vasp_rundir=run_iter_0/run_VASP_cu4lwm2y REF_energy=-40.57658042 REF_stress="-0.0071761419001727085 -0.005067721507473891 -0.010524887556766426 0.002194266377601108 -0.0064613353207157226 0.0003944560367410899" pbc="T T T"
Li       6.57326009      10.58056107       6.57468472      -0.18196910       0.10457479       0.37144199
Li       5.71192879       8.00289794       5.95786800      -0.06575579      -0.47386323      -0.45075909
Li       7.02984363       2.92453467       8.66692179      -0.03272331      -0.04868909       0.27263432
Li       6.88284490       7.91263011       3.55245181       0.19794237       0.08318097       0.07249865
Li       3.52276911       1.18010732       1.61208147      -0.02311882       0.16908635       0.03747786
Li       7.91887517       3.24778345       6.33250168       0.22767552      -0.12938383      -0.25488488
Li       3.74478809       9.51047002       4.83328521       0.04615370       0.30505216      -0.00402139
Li       1.15857250       2.62121365       2.25457536       0.13997938      -0.25298418       0.54111642
Li       3.35520469       6.56746660       6.57805781      -0.36436044      -0.09999559      -0.16231865
Li       5.28003343       3.32732924       1.32560751      -0.44458234       0.09963796       0.28848954
Li       2.95759008       4.82782060       2.22848209       0.41199871      -0.43581622      -0.23574932
Li       7.27417097       8.54414014       7.80511237       0.74090523      -0.06705763       0.42001983
Li       7.81099273       4.95569386       4.16668565      -0.47715756       0.04890912       0.29249401
Li       5.80548694       7.09914827       1.13347008      -0.48122212      -0.07587645      -0.15667738
Li       3.19108246       7.07790170       3.89163426       0.08305101       0.12184179      -0.05211048
Li       9.27161425       7.57686509       9.68510169      -0.08514470       0.24375732      -0.29508972
Li       3.75812099       3.77934055       4.85374593      -0.15207670       0.52514970      -0.31872609
Li       5.43799213       4.17931919       6.91546935      -0.09903509       0.51080967      -0.12465601
Li       5.40557036       5.65720196       3.25071370      -0.00147290      -0.43442939       0.21429235
Li       5.11647627       1.88534712       4.00302452       0.29419179      -0.09375582      -0.14047501
Li       5.25976734       6.84409398       8.47862673      -0.23876221       0.01801452       0.44580764
Li       3.37447911       4.63218914       8.79760364       0.05669313      -0.37248724      -0.14380122
Li       8.75162738       7.17854924       1.24727937       0.33068617       0.27490025      -0.05824660
Li       7.51887875       5.65338191       7.99472647       0.11810408      -0.02057594      -0.55875679
8
Lattice="4.51797 0.0 0.0 -0.3428033815746639 4.504946033248453 0.0 0.0 0.0 6.15685" Properties=species:S:1:pos:R:3:REF_forces:R:3 config_type=buildcell buildcell_config_i=50 RSS_min_vol_per_atom=7.0 buildcell_type=wide gap_rss_group=ALL gap_rss_iter=0 buildcell_symmetry="1 P1 P 1 @ 0.01" vasp_rundir=run_iter_0/run_VASP_juu33hjz REF_energy=-12.47199738 REF_stress="1.0891675011701683 1.066779705795842 1.0626529210118407 0.0012728887524158787 0.004468620261369876 -0.037260173357286826" pbc="T T T"
Li       1.12651870       1.14807664       0.06476885      -0.43740020      -0.75415427      -0.50370282
Li       3.31673358       3.39096075       3.05501130      -0.54410188      -0.54681061      -0.01518511
Cu       4.89943885       3.57532691       4.97498454       0.47698319      -0.29341414      -0.23102963
Cu       3.18298889       4.94696429       1.08834504      -0.18190098       0.81107370       0.57042026
Cu       1.06534580       2.54950502       1.77101520      -0.43751885       2.05379154       0.16097887
Cu       2.59770550       1.14482731       4.24476775       0.74022548      -0.29574121       0.12847533
Cu       2.68545042       2.85430737       6.30341488       1.12805188       0.21689847      -0.85852358
Cu       0.66609189       0.74981754       2.93595018      -0.74433864      -1.19164348       0.74856668
20
Lattice="6.93276 0.0 0.0 -3.4663799999999987 6.003946278340606 0.0 0.0 0.0 8.65426" Properties=species:S:1:pos:R:3:REF_forces:R:3 config_type=buildcell buildcell_config_i=60 RSS_min_vol_per_atom=9.0 buildcell_type=narrow gap_rss_group=ALL gap_rss_iter=0 buildcell_symmetry="1 P1 P 1 @ 0.01" vasp_rundir=run_iter_0/run_VASP_bd76dar6 REF_energy=-33.47005868 REF_stress="0.28780907290967256 0.29199970704628075 0.32892582357546785 0.0013666837485786388 0.0005798328461041541 -0.0007911357484214765" pbc="T T T"
Li       4.04185585       4.52257226       7.28233429      -0.37461486      -0.17701050      -0.63842087
Li       5.55122797       0.25499846       7.19415174      -0.36718285       0.34047324      -0.48016946
Li       1.16595290       1.26587667       7.17061799      -0.13623211       0.11488081      -0.51850050
Li      -1.11286860       5.28061394       2.10543772      -0.20856770      -0.38827312       0.15104298
Li       1.75465749       4.15989995       1.97951891      -0.32891677       0.75178615       0.71971939
Li      -0.61956542       2.22842576       2.18343543       0.38067378       0.15179179      -0.11891017
Li       3.17478718       3.40606740       4.37056120      -0.29926691       0.76898095      -0.16815060
Li       4.88305825       1.40896667       4.08152150       0.07526799      -0.02941471       0.38157518
Li       2.17347729       1.06552632       4.10889696       0.59720343      -0.50424992       0.31491295
Li       1.57141002       3.66414978       7.95450490       0.05630517       0.15440205      -0.43336264
Li      -1.06820714       2.99872267       7.98232456       0.26883158      -0.62740429      -0.30970402
Li      -0.63157484       5.55243854       7.86158991       0.51768253       0.22253990      -0.25442980
Li       4.41269137       0.55092631       1.07910752       0.40063449       0.18698954      -0.00346315
Li       1.93699151       1.90093157       1.22906296      -0.21412847      -0.88492427      -0.04441389
Li       4.07846373       3.39985828       1.06407393      -0.05726325       0.21788121       0.24091877
Cu       0.84692519       4.92390199       4.53994648       1.04468484       0.44188717       0.04965581
Cu       0.41264303       2.54686027       4.46664265      -0.26375665       0.16107501       0.24391650
Cu      -1.33570007       4.24707081       4.49540189      -1.13346038      -0.16730953       0.10357957
Cu      -3.36328005       6.09707429       3.71108636      -0.21589426      -0.50626257       0.08197762
Cu       3.43545911       2.03444157       6.32291596       0.25800040      -0.22783890       0.68222632
20
Lattice="7.14 0.0 0.0 -0.45773168219212523 7.510564689630039 0.0 -1.950609299819294 -1.7661211169525084 7.06174840989205" Properties=species:S:1:pos:R:3:REF_forces:R:3 config_type=buildcell buildcell_config_i=77 RSS_min_vol_per_atom=9.0 buildcell_type=wide gap_rss_group=ALL gap_rss_iter=0 buildcell_symmetry="1 P1 P 1 @ 0.01" vasp_rundir=run_iter_0/run_VASP_kky23a78 REF_energy=-34.25746677 REF_stress="0.2910584565184538 0.29171241989951774 0.2809220680709112 -0.00044284704993742974 -0.006117295766746468 0.0024179686869139467" pbc="T T T"
Li       6.11551532       2.45283284       3.37578400      -0.19671669       0.20951108      -0.03046053
Li      -0.38039176       4.76692931       7.13363230       0.18889283       0.84257727       0.46026159
Li       4.56262785       4.50582021       5.59077116       0.10016834      -0.60147148       0.25989948
Li       4.48023662       1.43234874       5.16821468      -0.02806640       0.12895224       0.26126879
Li       5.45648731       0.29157019       1.41611137      -0.10502974       0.47040120      -0.13888272
Li       5.51616789      -0.92478167       4.37012482       0.44237167       0.29161794      -0.08998701
Li       5.87954754       5.37911323       1.30846895       0.47963264      -0.20805031      -0.08534537
Li      -0.28077239       3.01233630       0.65192951       0.34760123      -0.21422149      -0.10293108
Li       1.69336983       1.96390605       2.14802294       0.18228502       0.13600485      -0.14442153
Li       2.13640212       5.34103566       4.59460926      -0.17014994       0.18068208       0.04197970
Li       0.80351435      -0.32409199       3.09611038      -0.22381446      -0.79769456      -0.42626635
Li       1.95538373       0.11837882       6.06399877       0.46001658      -0.84734331       0.27011463
Li       4.28486109       2.98555805       1.29883013      -0.32068606       0.03222413       0.51327136
Li       2.17074985       3.86113263      -0.12387640      -0.06241269       0.18912845      -0.27495545
Li       3.54015506       5.58532206       2.21030146      -0.09400668      -0.11644626       0.13070186
Cu       3.26087300       3.13999652       3.85768130      -0.35837469      -0.16727569      -0.42771238
Cu       0.90544644       1.34437074       4.59684010      -0.03694069       1.00244609      -0.28156139
Cu       3.26255175       0.23429975       3.37871206      -0.16170546       0.33026808       0.00895070
Cu       1.28819325       5.00571273       1.88045257      -0.50474632      -0.73498665       0.63653588
Cu       0.18556188       3.83001490       5.08625394       0.06168152      -0.12632367      -0.58046018
16
Lattice="5.17637 0.0 0.0 0.0 7.71057 0.0 0.0 0.0 8.15184" Properties=species:S:1:pos:R:3:REF_forces:R:3 config_type=buildcell buildcell_config_i=78 RSS_min_vol_per_atom=9.0 buildcell_type=wide gap_rss_group=ALL gap_rss_iter=0 buildcell_symmetry="1 P1 P 1 @ 0.01" vasp_rundir=run_iter_0/run_VASP_5kfsd75v REF_energy=-26.14602029 REF_stress="0.27631099420796146 0.2576971944415481 0.26893654432109415 -0.002395575544026813 0.0007088858464511182 -0.0009164240764335089" pbc="T T T"
Li       3.59409449       2.43397421       4.69188448       0.15697503      -0.37063577      -0.29879530
Li       4.37243491       5.23935403       0.52778193      -0.16520275       0.01150764      -0.42171710
Li       1.78986820       6.37982911       7.55369693      -0.33505680      -0.55395344       0.26371317
Li       1.01049408       1.36114259       3.47815140       0.22752208       0.04743855      -0.04183013
Li       4.63933384       7.35245926       1.76825100      -0.66124015       0.43354248       0.27579861
Li       3.09318864       0.06549960       6.04808752       0.58987179       0.38277944      -0.08806345
Li       0.47042998       3.54727192       2.28174209       0.55583049       0.25492979      -0.14990191
Li       2.00437498       4.02882053       6.06862239      -0.52778041       0.17481573      -0.11835207
Li       4.57952890       3.24644126       6.85351574       0.14705214      -0.52575995       0.56987532
Li       3.16815763       4.41515713       2.86352572      -0.13319277       0.56764702       0.37919419
Li       0.48223216       7.27586182       5.25779518      -0.28777443      -1.33652851      -0.51950606
Li       1.94001108       0.70219049       1.06114054       0.01834862       0.49122058      -0.41834159
Cu       1.18445773       1.48939087       5.86774185       0.05778512       1.17924942       0.70375351
Cu       1.44429976       6.09905877       1.94177729       0.25408218      -0.20270545       0.06883465
Cu       4.00123381       5.51053252       6.07934734       0.13298622      -0.26136958       0.01172221
Cu       3.67977194       2.12386324       2.25699177      -0.03020637      -0.29217797      -0.21638407
22
Lattice="5.51722 0.0 0.0 0.0 5.51722 0.0 0.0 0.0 8.19286" Properties=species:S:1:pos:R:3:REF_forces:R:3 config_type=buildcell buildcell_config_i=87 RSS_min_vol_per_atom=6.0 buildcell_type=narrow_even gap_rss_group=ALL gap_rss_iter=0 buildcell_symmetry="1 P1 P 1 @ 0.01" vasp_rundir=run_iter_0/run_VASP_hpcivxnk REF_energy=-26.78087244 REF_stress="1.8538844181029759 1.842025694898968 1.7499689630972302 0.0050065087805330685 0.005641993643301577 -0.009858564864161574" pbc="T T T"
Cu       0.44604119       1.06570097       5.11580878      -0.11475148       0.24040409      -1.71867610
Cu       5.27315321       4.41427726       5.02762623      -2.67304797      -0.01125757      -2.02080130
Cu       1.23744868       5.19759370       3.09487263      -3.21389049      -2.22384958       0.93747993
Cu       4.49194860       0.35002801       3.09524710      -1.02967434       0.03694351       3.06083270
Cu       3.05552020       4.17058887       3.92036613       1.02543495       0.95014790       2.75832661
Cu       2.42966727       1.05402000       4.12428265       2.23733929       0.36602222      -0.49978467
Cu       4.27111448       2.34466565       4.24656696       0.85900143       1.00415983      -2.03770558
Cu       1.13272548       3.03807680       3.95752727      -0.60724620      -2.05074022       1.41674035
Cu       0.99126195       1.76563608       7.99416398      -0.30024043      -0.34883390       2.54213391
Cu       4.50908958       3.70261231       8.08009396       1.27681106       0.52464809       1.44184759
Cu       1.69437316       4.65674759       0.08224694       0.47791223       0.65028900       1.25543860
Cu       3.65690509       1.12795471      -0.03848770      -0.19744886      -1.63337445      -0.19437963
Cu       4.43638980       2.23291516       1.66851685       0.78147203       0.03548641       2.12979560
Cu       1.12140268       3.16218448       1.81847228      -0.22293372      -0.28317519      -1.79470498
Cu       2.41731735       1.07160619       6.24367235       0.92464355       0.71741791       1.31441985
Cu       3.01635340       4.36943956       6.49723677       1.74130696      -0.04015101      -2.16763647
Cu       3.34232749       4.26824042       1.81192708      -0.75917055       0.70103485      -1.56037308
Cu       2.17074611       1.00498337       1.84068632       1.25567999       2.05492154      -3.12419781
Cu       4.54764438       2.30238235       6.32941956      -2.00068741      -0.49938260       1.00619041
Cu       1.04175433       3.34109201       6.51089583       0.77894345       0.17091871      -1.20370357
Cu      -0.04791742      -0.01856590       6.93226029      -0.92937391       0.12135188       1.96810451
Cu      -0.11962066       0.08125258       1.28559022       0.68992042      -0.48298142      -3.50934690
14
Lattice="4.59417 0.0 0.0 -2.297084999999999 3.978667929304355 0.0 0.0 0.0 7.72713" Properties=species:S:1:pos:R:3:REF_forces:R:3 config_type=buildcell buildcell_config_i=90 RSS_min_vol_per_atom=6.0 buildcell_type=wide_even gap_rss_group=ALL gap_rss_iter=0 buildcell_symmetry="1 P1 P 1 @ 0.01" vasp_rundir=run_iter_0/run_VASP_f9h2i7m2 REF_energy=-13.85709304 REF_stress="1.8478263273569298 1.811390591032896 1.7959552869665745 -0.001242568206372869 0.008093972338408497 -0.003893030692761935" pbc="T T T"
Cu       1.19823574       3.30170379       4.34447226       3.01256914       4.23971665      -1.07470051
Cu      -0.99622757       3.29217336       4.25628971      -3.53150100       0.83396265      -0.35841156
Cu       0.15788751       1.40296041       4.23275597      -3.69109896      -4.21528101      -0.50212648
Cu       0.05428977       1.27987517       8.09669543       0.66719325      -3.46819654       1.64775029
Cu      -1.12436810       3.12420219       7.97077662      -2.89294832       3.31768619       1.39836273
Cu       1.09230180       3.21430559       8.17469314       3.64521883       0.76714886      -2.22061495
Cu       3.38656254       1.79314785       6.37353363       2.60613600       0.93762996      -4.38570708
Cu       1.15768922       2.05105009       6.08449394      -1.28080671       0.35639567       4.09482108
Cu       2.17918493       0.01108470       6.11186940      -0.71322461      -2.38064820       1.43035184
Cu       2.39811660      -0.06007143       2.33423438      -1.34263405       4.48408443       0.85544063
Cu       1.05663439       2.11960603       2.36205403       1.98768193      -3.88826730      -0.18275461
Cu       3.30813206       2.12655176       2.24131939      -0.06723299      -1.25351458       1.14616237
Cu       2.31797159       1.13025550       0.35270402      -1.62836506       1.34867884       1.81815455
Cu       2.31677135       1.40006917       4.36622445       3.22901254      -1.07939562      -3.66672831
