14
Lattice="6.24531 0.0 0.0 2.068954041176507 5.892650182354235 0.0 2.068954041176507 1.466350160115447 5.707288618909053" Properties=species:S:1:pos:R:3:REF_forces:R:3 config_type=buildcell buildcell_config_i=2 RSS_min_vol_per_atom=8.0 buildcell_type=narrow gap_rss_group=ALL gap_rss_iter=0 buildcell_symmetry="1 P1 P 1 @ 0.01" vasp_rundir=run_iter_0/run_VASP__7xaqmh2 REF_energy=-24.04114385 REF_stress="0.7602078878493644 0.7524008382472086 0.7458615801691769 0.007439749335530935 0.010472657397548265 0.007676074148341486" pbc="T T T"
Li       7.00004778       5.34300949       2.33246410      -0.03575521       0.07492065      -0.20045371
Li       7.50917870       3.36323743       4.04510290       0.00427234      -0.21099659      -0.00853486
Li       5.79053164       5.46542974       4.57707954      -0.12193785      -0.02190610       0.31363773
Li       3.48709772       1.95582265       3.39302039      -0.50846934      -0.10166759       0.07053348
Li       3.05053860       3.78101955       1.46628024      -0.12531763       0.31359013       0.26188176
Li       4.69437897       1.86903097       1.11468638       0.15795541      -0.00868339      -0.28598277
Li       6.15450759      -0.14123037       0.14656488       0.08009924       0.14133591      -0.38919484
Cu       4.70513427       6.17244073       1.10910675       0.82669503      -2.40397163       0.78897900
Cu       7.32928817       1.82505072       1.91555622      -1.42804947       0.57799007       1.17771043
Cu       4.19518781       3.49081819       5.63111972       0.09056346       1.31229526      -2.72970969
Cu       5.59533552       1.37854025       4.45435733       0.21501508       0.44869156       0.28104587
Cu       2.89372054       5.62729637       3.55454868       1.13827977      -0.06669989      -0.84422548
Cu       6.24648643       3.61215127      -0.08581908      -0.07311056       0.29098594       1.42518495
Cu       5.21129516       3.75334683       2.87078114      -0.22024027      -0.34588434       0.13912813
18
Lattice="5.10027 0.0 0.0 -0.04456330400639391 5.905221855615251 0.0 0.0 0.0 10.03029" Properties=species:S:1:pos:R:3:REF_forces:R:3 config_type=buildcell buildcell_config_i=5 RSS_min_vol_per_atom=8.0 buildcell_type=narrow gap_rss_group=ALL gap_rss_iter=0 buildcell_symmetry="1 P1 P 1 @ 0.01" vasp_rundir=run_iter_0/run_VASP_wfrkk2px REF_energy=-28.92347792 REF_stress="0.6523970242856761 0.639680650868726 0.647856304832182 0.006812682346188433 -0.005506134764090549 0.012835462684339776" pbc="T T T"
Li       3.47032082       1.43455088       6.64718578       0.04367238       0.02503800       0.06724194
Li       3.57295239       1.42496197       3.42445937      -0.14802595       0.32525836      -0.04393143
Li       5.57389450       5.67002257       3.61792995      -0.06920821       0.20229399      -0.43059625
Li       5.47022922       5.54693733       6.31883963       0.20246366      -0.05687039       0.23824665
Li       3.23391533       5.47078352       1.17749999       0.37398509       0.25511176       0.33328667
Li       3.15349035       5.56082844       8.71172296       0.38882924       0.13645713      -0.30120995
Li       1.71076066       3.02138088       1.51135735       0.73125983       0.60914379      -0.71792572
Li       1.77898544       3.16936407       8.52302271      -0.10204682       0.03895279       0.22743289
Li       2.57887629       5.29541133       4.90004564       0.55702697      -0.21924932       0.32827813
Cu       0.75895623       0.85299209       8.48557891      -0.16509305       0.25702358      -0.09732324
Cu       0.66121577       1.09828377       1.51419199       3.19970763      -4.57160325       0.54354963
Cu       1.43435515       3.44776385       3.72130310      -0.71176269      -0.51428702       0.11781368
Cu       1.56101260       3.16954234       6.05408393      -0.82885958      -0.47045174      -0.06694469
Cu       3.68806573       3.98112646       3.08762826       0.49687211      -0.32203233       0.14211915
Cu       3.65681477       3.87716943       6.81194637       0.54699387       0.14250119       0.13607389
Cu       4.31517310       2.62732159       8.98597531       0.04788017       0.37811797      -1.38201912
Cu       4.42151935       2.49708145       1.18243531      -3.60911862       4.11938618       0.54863729
Cu       1.12660444       5.09050197       0.06116763      -0.95457601      -0.33479070       0.35727047
18
Lattice="4.64113 0.0 0.0 -2.3205649999999993 4.019336482266072 0.0 0.0 0.0 15.52959" Properties=species:S:1:pos:R:3:REF_forces:R:3 config_type=buildcell buildcell_config_i=6 RSS_min_vol_per_atom=8.0 buildcell_type=narrow gap_rss_group=ALL gap_rss_iter=0 buildcell_symmetry="1 P1 P 1 @ 0.01" vasp_rundir=run_iter_0/run_VASP_84qee9l8 REF_energy=-29.76349833 REF_stress="0.6617928631367531 0.6737131088400414 0.6920206792846494 -0.001996753708965368 0.0018829359015947015 -0.0031078836473807073" pbc="T T T"
Li      -0.00467947       2.91030356       9.82884172       0.31719798       0.03490428      -0.64416761
Li       0.39128428       2.58092539       4.56412969      -0.48326031      -0.51899473      -0.15919792
Li      -0.02670914       2.58694572      14.89365491      -0.56113300       0.14498660      -0.51783381
Li       0.37054089      -0.04211946       5.26449556      -0.12418330      -0.36499752       0.20814029
Li       2.19027541       3.55198655      15.49163727       0.16005699       0.77062427       0.49280088
Li       4.42310217       0.17051648      10.51902275       0.49383582       0.08049595      -0.00503187
Li       3.93805673      -0.09802974       2.92270427       0.51394972       0.39266356      -0.51694695
Li       0.32097065       0.51539463      12.98672354      -0.43162367       0.04540462       0.11563841
Li       2.53484931       3.47858630       7.83756952       0.06312643      -0.15502501       0.19086636
Cu       2.52250019      -0.26805529       6.74651343       0.67835970      -0.43664543       0.04282120
Cu       0.83780283       2.15654717       1.59780204       0.51415798      -0.24115613      -0.23428800
Cu       3.47301933       2.33826344      11.83012792      -0.35555965      -1.09988483      -0.86339698
Cu       2.14103460       1.96643320      13.59522248      -0.41493837      -0.10394051       1.03936670
Cu       3.15287006       1.17588079       8.56864843      -0.33676230       0.03066158      -0.07374596
Cu       1.69679730       0.72479216       3.22712837       0.37391250      -0.25532260       0.09113371
Cu       2.54062995       0.03931849      12.25458813       0.95048728       0.56012479       0.07470312
Cu       1.12256294       1.53775087       7.00475327      -0.53945648       1.09428464       0.31699027
Cu       3.22237129       2.15220703       1.85698302      -0.81816731       0.02181648       0.44214815
10
Lattice="3.10709 0.0 0.0 0.21815871658873393 6.116340574827105 0.0 0.5602487139954032 2.9467960795007024 7.970691554733867" Properties=species:S:1:pos:R:3:REF_forces:R:3 config_type=buildcell buildcell_config_i=9 RSS_min_vol_per_atom=8.0 buildcell_type=narrow gap_rss_group=ALL gap_rss_iter=0 buildcell_symmetry="1 P1 P 1 @ 0.01" vasp_rundir=run_iter_0/run_VASP_xevwypq5 REF_energy=-16.56935912 REF_stress="0.7302493986872687 0.7203163159400909 0.6809396155557734 0.014058814557381913 0.010342528454650635 -0.002468292957629956" pbc="T T T"
Li       3.27753854       2.07358520       1.00286027      -0.09302061       0.15367392       0.03481554
Li       0.80993329       6.95230968       7.00918645      -0.17053920      -0.31226430      -0.46836863
Li       0.65293891       4.58302130       5.90598268      -0.73615095      -1.09778002       0.58244010
Li       3.44473581       4.51051705       1.97118846      -0.07670049       0.59006113       0.21963868
Li       1.57774123      -0.19132802      -0.17249178       0.12666447       0.50602037       0.41141392
Cu       1.77881688       3.22879008       3.57803495       0.40945297       1.43306560      -2.05181696
Cu       1.95964939       5.59183309       4.57064621       0.48740201       0.66160836      -0.93081705
Cu       2.11629911       8.37498333       5.43452640       0.16864184      -0.46930294       3.15785272
Cu       1.69218242       0.70599841       2.27859098       0.87456827      -0.67426316      -0.51358642
Cu       3.42478416       1.41333417       3.95617640      -0.99031831      -0.79081896      -0.44157190
6
Lattice="2.96807 0.0 0.0 -0.6310392935306306 5.1955278628952 0.0 -0.2029816339577647 -1.241005154225169 6.38669095381657" Properties=species:S:1:pos:R:3:REF_forces:R:3 config_type=buildcell buildcell_config_i=11 RSS_min_vol_per_atom=8.0 buildcell_type=wide gap_rss_group=ALL gap_rss_iter=0 buildcell_symmetry="1 P1 P 1 @ 0.01" vasp_rundir=run_iter_0/run_VASP_i29j3rem REF_energy=-10.08461922 REF_stress="0.7271167375094431 0.6947571573564683 0.6846932068152671 -0.012933971343092515 -0.012094119011875673 -0.006745074824899106" pbc="T T T"
Li       1.16221100       0.82019963       5.77328711       0.18680866      -0.43092032       0.01464628
Li       0.62012578       4.46819732       0.15369819       0.10751361       0.37545568      -0.22134220
Li       1.21367284       3.37976633       2.48365750      -0.38340088      -0.67440778      -0.64168422
Cu       2.59403927       2.34103330       4.27555434      -0.04813752       0.08454874       0.03104092
Cu       2.62070928      -0.18104197       3.70047106       0.52202616       0.59555102       0.48482325
Cu       0.09743307       1.16525688       1.42259036      -0.38481003       0.04977265       0.33251598
6
Lattice="2.75045 0.0 0.0 -0.01313831257385409 4.278789829010384 0.0 -0.8555897258445877 -0.236095423675004 6.799435260839602" Properties=species:S:1:pos:R:3:REF_forces:R:3 config_type=buildcell buildcell_config_i=12 RSS_min_vol_per_atom=8.0 buildcell_type=wide gap_rss_group=ALL gap_rss_iter=0 buildcell_symmetry="1 P1 P 1 @ 0.01" vasp_rundir=run_iter_0/run_VASP_nan4i8qw REF_energy=-10.6146388 REF_stress="0.7963186953651495 0.78352028694763 0.7929582109590598 -0.009842464641710994 0.01338889112567932 -0.007835887945819164" pbc="T T T"
Li       2.24187155       3.36877033       4.47741127      -0.07531983      -0.49239363      -0.49524987
Li       1.51618528       2.24761064       2.07227016      -0.06729620      -0.27372920      -0.05928219
Li       0.97438822       3.68846459       6.67820331      -0.47526896      -1.06683783       0.50735549
Cu       0.10826411       0.09533804       2.04251815       0.26057542       0.25945084       0.36883823
Cu      -0.54461924       1.24423998       6.39476724       0.06708273       1.37000370       3.21436793
Cu       0.77407842       1.06885644       4.74464979       0.29022684       0.20350611      -3.53602959
12
Lattice="5.82019 0.0 0.0 -2.9100949999999988 5.040432394852153 0.0 0.0 0.0 6.3927" Properties=species:S:1:pos:R:3:REF_forces:R:3 config_type=buildcell buildcell_config_i=17 RSS_min_vol_per_atom=8.0 buildcell_type=wide gap_rss_group=ALL gap_rss_iter=0 buildcell_symmetry="1 P1 P 1 @ 0.01" vasp_rundir=run_iter_0/run_VASP_nedupe1v REF_energy=-18.95175698 REF_stress="0.7012528058791657 0.7077050487067001 0.6650710530203238 0.004279979729435833 0.004121724349405761 0.0032841892783160506" pbc="T T T"
Li       2.54689814       0.80266364       4.13373966       0.63506435       0.05401784       0.04212093
Li       2.52088576       2.44611024       6.17645690      -0.87784040      -0.38389964      -0.09566407
Li       4.02239678       1.83116022       1.89112358      -0.74400711      -0.09600839       0.24869011
Li      -1.94645148       4.69510478       5.89971583      -0.51442181       0.23409539       0.02329997
Li       2.22066813       4.21104460       1.51199681       0.25286559       0.65468288       0.31421768
Li      -0.25199317       0.83576250       3.84681376       0.19773227      -0.29531312      -0.33727939
Cu      -0.93288321       4.88474707       1.89708942      -1.39883544       1.62996176       0.81421470
Cu       1.84099192       3.26345986       3.73894952       0.35301837       0.13316619       0.83702365
Cu      -1.07592701       1.80927256       5.89722476       0.08868088      -1.09254549       1.20126390
Cu      -0.46166107       3.32302798       4.40034268      -0.24232860       0.83151903      -1.02481457
Cu       0.20919326       3.96646090       6.55906212       1.01267946       0.44855463      -2.21877036
Cu       0.12409586       2.99879434       2.17652727       1.23739245      -2.11823108       0.19569745
24
Lattice="6.39114 0.0 0.0 -2.363607114793258 7.490901208092301 0.0 0.0 0.0 10.02304" Properties=species:S:1:pos:R:3:REF_forces:R:3 config_type=buildcell buildcell_config_i=21 RSS_min_vol_per_atom=10.0 buildcell_type=narrow_even gap_rss_group=ALL gap_rss_iter=0 buildcell_symmetry="1 P1 P 1 @ 0.01" vasp_rundir=run_iter_0/run_VASP_gdcqgbxw REF_energy=-41.00080453 REF_stress="-0.013525543094730447 -0.009213369161902577 -0.022692499932901282 -0.001324306816398653 0.0015966195217120972 0.00427541427148005" pbc="T T T"
Li       2.19108010       3.32263370       6.54937103      -0.16030420       0.00350276      -0.34163044
Li       2.03842719       4.13102574       1.44966848       0.00716417       0.10984226      -0.51035421
Li       5.21785504       1.85842211       3.74556643       0.17134756       0.00667340      -0.45387907
Li      -0.97814487       5.66288080       8.75746089      -0.41903488      -0.07311834      -0.05717566
Li       4.73845130       3.44592325       5.55060492       0.12415804       0.78433572       0.41436535
Li      -0.74295094       3.75236682       0.74300144      -0.35011414      -0.19783744       0.05498529
Li      -2.11561696       6.85752912       4.03061015       0.50588478       0.42479590      -0.01754111
Li       6.02976981       0.49889454       8.75309045      -0.20779865      -0.20784338       0.57317577
Li      -1.94598462       6.20562559       1.19481174       0.07159758       0.28458873      -0.06867352
Li       5.95664904       1.23630400       6.29226172      -0.14517150      -0.11163730      -0.32342414
Li       3.88108407       4.47239118       3.21776908      -0.15925231      -0.55730446      -0.05469206
Li      -0.01949294       3.28599233       8.10855444       0.32183050       0.04592643       0.03970589
Li       1.99106012       1.85779539       9.66919332      -0.23634118       0.54787642      -0.06544450
Li       2.07704525       5.51098546       4.80762875      -0.34104145      -0.17065428       0.02776626
Li       2.55283924       1.31425320       2.20022734       0.08062730       0.13030068       0.50202176
Li       1.39114440       6.10047376       7.46531176       0.23413545      -0.05992073      -0.04895207
Li       0.05739552       5.17565350       3.04977042      -0.09115352      -0.08636306       0.14919317
Li       3.96599097       2.07125149       8.09004965       0.36729728       0.19993946       0.10396450
Li       0.09433455       1.44818635       1.39367881      -0.46479229      -0.15344783       0.06463617
Li       4.00537705       6.16896922       6.58667508       0.31672925      -0.52673791      -0.06407054
Li       3.23467869      -0.32030764      -0.19307801       0.36879208      -0.26328414       0.50549749
Li       0.62531610       7.87389553       5.06469949       0.04223049       0.17644773      -0.13728862
Li       1.91303001       0.66771565       7.37509764      -0.13963878      -0.25286109      -0.05710986
Li       2.04278988       6.95967841       2.48121769       0.10284839      -0.05321952      -0.23507585
24
Lattice="3.95854 0.0 0.0 -1.7399322383343543 9.664059070577167 0.0 0.0 0.0 12.57759" Properties=species:S:1:pos:R:3:REF_forces:R:3 config_type=buildcell buildcell_config_i=22 RSS_min_vol_per_atom=10.0 buildcell_type=narrow_even gap_rss_group=ALL gap_rss_iter=0 buildcell_symmetry="1 P1 P 1 @ 0.01" vasp_rundir=run_iter_0/run_VASP_ycyiw1j0 REF_energy=-42.16114357 REF_stress="0.003307275665621796 -0.011661724973037382 -0.01517044476523671 -0.0005200257756750809 -0.002630590869498225 0.0005920961008195983" pbc="T T T"
Li       1.03866300       0.90506710       4.40037984      -0.09847283       0.19210801      -0.51441279
Li       1.38191916       8.72175021       4.31219729      -0.09272034      -0.21683764      -0.34014678
Li       0.59011252       1.60077139       0.21170693       0.17449961      -0.39790553      -0.18567054
Li       1.84067253       8.09368939       0.21208139      -0.41275749       0.58197959       0.25697130
Li       2.99244725       1.14490306       5.95150912      -0.10586391       0.20786669       0.31594744
Li      -0.80587202       8.22654487       6.15542563       0.26876345       0.08036692       0.01590036
Li       1.13882212       8.50906407       8.07847234      -0.15844949       0.11387685      -0.28415455
Li       0.96640560       1.02051745       7.78943264       0.26376465      -0.00555178       0.06188824
Li       2.01314874       3.74671110       0.74850313       0.00665608       0.09722864      -0.06028388
Li       0.18859055       5.86837636       0.83443311       0.04558088       0.03696847      -0.22553660
Li       2.74240008       8.63211701      10.11561340       0.65053485      -0.17975096       0.13204553
Li      -0.68973407       1.29942437       9.99487875      -0.45499743      -0.12880829       0.09189220
Li       2.74197996       1.40287038       2.24641240       0.02608139      -0.15764711       0.22539801
Li      -0.48279972       8.13906833       2.39636784       0.13656757       0.21357339       0.05936607
Li       0.60923941       6.17396429       9.19261076      -0.24810078      -0.14005655       0.50285873
Li       1.52581910       3.41392054       9.44617518       0.22142620       0.13018069      -0.08644980
Li      -0.34713116       3.39715868       7.53996181      -0.17859344       0.25674606      -0.14081060
Li       2.56159252       6.02290418       7.56872104       0.13432364      -0.31275252      -0.10663969
Li       1.14849657       3.56320750       5.13383738       0.38229806      -0.16618256       0.32088693
Li       1.14228990       6.22710592       5.31531364      -0.40955453      -0.01711245       0.00160739
Li       3.64933425       3.60847627      11.18063505       0.03563959       0.39827739       0.20793332
Li      -1.59826458       6.11826948      11.42689255       0.00947148      -0.42136664      -0.41348055
Li       2.09538345       5.85447805       2.75740318       0.03069908       0.20574523       0.20457058
Li       0.05151132       3.94607387       2.87504323      -0.22679629      -0.37094588      -0.03968032
8
Lattice="6.17946 0.0 0.0 2.8776891712827872 5.468512679429552 0.0 2.8776891712827872 1.737487085948946 5.185148942050018" Properties=species:S:1:pos:R:3:REF_forces:R:3 config_type=buildcell buildcell_config_i=38 RSS_min_vol_per_atom=10.0 buildcell_type=wide_even gap_rss_group=ALL gap_rss_iter=0 buildcell_symmetry="1 P1 P 1 @ 0.01" vasp_rundir=run_iter_0/run_VASP_mx6ts0dt REF_energy=-13.19228622 REF_stress="0.000838230980632719 -0.004954382729687127 0.001222294199388682 0.001847001411443889 0.0009386043089613407 0.0044420852717513325" pbc="T T T"
Li       4.26622852       4.92905126       1.52525368       0.09974246      -0.09887203      -0.27086318
Li       4.73117529       2.33179082       4.19930368      -0.42296369       0.14439034      -0.24338560
Li       6.49571294       1.91577438       0.84455233      -0.22670298      -0.34901301       0.44187301
Li       7.87162288       3.88333868       1.69937401       0.07739653       0.37430563      -0.05325262
Li       6.23456351       5.37428022       2.99883086      -0.01358226       0.31995755       0.47201703
Li       7.06178146       3.17077573       4.30102726       0.54958882      -0.23101685      -0.19028104
Li       9.52602418       5.66520355       4.32464227      -0.03495460       0.05707504      -0.29721902
Li       3.74683220       2.28264174       1.49516373      -0.02852428      -0.21682666       0.14111142
20
Lattice="6.84567 0.0 0.0 2.8905634599270926 6.205468607046072 0.0 3.017789759501739 1.9234131650940698 6.675540525784354" Properties=species:S:1:pos:R:3:REF_forces:R:3 config_type=buildcell buildcell_config_i=41 RSS_min_vol_per_atom=7.0 buildcell_type=narrow gap_rss_group=ALL gap_rss_iter=0 buildcell_symmetry="1 P1 P 1 @ 0.01" vasp_rundir=run_iter_0/run_VASP_btwj5r2v REF_energy=-28.6553593 REF_stress="1.100349231178845 1.0647707990010387 1.1268992290241264 -0.008819420316434567 -0.017020458647301714 0.008125373402028362" pbc="T T T"
Li       2.35072488       4.23623329       1.80891069       0.21566948       0.16230402      -0.23287978
Li       4.97651350       0.26787065       1.72072814      -0.10411835      -0.14180741       0.02976284
Li       8.51309781       2.63698281       5.73842311      -0.55686508      -0.80005432       0.04358135
Li       5.90301191       6.44641224       5.73879757      -0.60838640      -0.25235117       0.40720711
Li       6.92153738       4.20474919       7.00323898       0.32789079       0.99665846       0.95906571
Cu       2.96337013       3.18513080       3.96478071       1.35068840       1.46706172       0.17765475
Cu       4.16328529       1.20829979       4.07992086       2.21505273       1.23808056       0.41096911
Cu       6.34202934       5.42668891       3.44482047       0.42308736       0.12376295       0.78327706
Cu       7.54606593       3.49193483       3.47219593       0.54806430       0.23815701       1.59713987
Cu       4.69411607       4.26310585       6.06717255      -0.40209961       1.78045023      -0.10817345
Cu       5.82491238       2.58085239       6.09499220       1.49960864      -2.35157705      -1.90760255
Cu       4.99532821       4.69274817       0.02566671       0.26300931      -1.77465449      -1.09782399
Cu       6.35413424       2.48131469       0.01493247      -1.14849449       1.25790032       0.21887423
Cu       7.99159551       2.14200537       1.65061890       0.38570923      -0.45440623      -0.31064328
Cu       5.22929603       6.32299888       1.48562987       0.41816743       1.91219690       1.96128352
Cu       9.33201237       7.29981027       4.39926101       1.53027482      -1.19200779       0.27781061
Cu      10.66406512       5.24646563       4.32595719      -0.86295616       2.57383214      -0.13167815
Cu       5.84831702       2.33667916       2.55690190      -1.61573542      -0.26009830      -1.03947645
Cu       4.76831065       4.41418370       2.41181252      -1.46188238      -2.50671654      -1.18301901
Cu       1.94400717       1.29186323       3.73561729      -2.41668460      -2.01673102      -0.85532949
20
Lattice="6.17421 0.0 0.0 0.0 7.20015 0.0 0.0 -3.600074999999998 6.235512811058527" Properties=species:S:1:pos:R:3:REF_forces:R:3 config_type=buildcell buildcell_config_i=44 RSS_min_vol_per_atom=7.0 buildcell_type=narrow gap_rss_group=ALL gap_rss_iter=0 buildcell_symmetry="1 P1 P 1 @ 0.01" vasp_rundir=run_iter_0/run_VASP_ta1mv2i9 REF_energy=-31.44867074 REF_stress="1.164582548600874 1.1822708155759902 1.1736660751740762 -0.005116829701276341 -0.006710431678020401 0.004511221282452008" pbc="T T T"
Li       6.22388142       4.93368500       1.36533034      -0.46232499      -0.12566249       0.17034090
Li       0.15230299       2.22922251       1.27714779      -0.35858232       0.34895026       0.20287599
Li       6.33213128       3.67681811       3.58744303      -0.72059708      -0.12776688      -0.12561761
Li       1.79617723      -0.04634213       4.11043577       0.03406360      -0.04698460      -0.07507755
Li       4.45648500      -0.19132838       3.98451697      -0.05538928       0.63184853       0.42358502
Cu       1.86348193       0.55627275       1.18651732       2.07894950       1.51556988      -0.30796862
Cu       1.82890828       5.72980218       0.13847866       1.25449267      -0.69073060      -2.25128053
Cu       1.89713306       4.27838941       4.94603162       0.74702542       1.60762031       0.92755905
Cu       4.20006104       2.93960567       4.97340708      -0.13428017      -0.37792898      -0.03279498
Cu       4.29206911       6.48253027       1.12592321       0.15808401       1.29604212       1.09353293
Cu       4.19432865       1.51434527      -0.00943594      -0.10837795      -0.50069563      -1.57168886
Cu       3.86587655       4.86083384       3.61165653       1.29925220      -0.92220858       0.31247724
Cu       3.99253400       1.38137885       2.13868206      -0.44055450       1.12297696       2.35630362
Cu       3.99133376       4.51814645       0.24740808      -0.70135452      -2.10238146      -0.53523291
Cu       2.19099753       2.72573984       0.08241905      -0.16627835       0.54056586       0.44155652
Cu       2.13057794       2.37550677       3.83945311       0.48578054      -1.31776978      -1.39759666
Cu       2.23692419       5.44650012       2.30390906      -0.81890280      -0.11359334       0.54616911
Cu       6.13570177      -1.61581625       5.11198601       0.32006305       0.59019557      -0.60985781
Cu       0.10309995       0.09312801       2.28546711      -1.74405236      -0.77370466       1.31484134
Cu       6.14328876       1.58125040       5.14837289      -0.66701665      -0.55434251      -0.88212620
16
Lattice="3.52753 0.0 0.0 0.290183966652733 8.159881829236111 0.0 0.290183966652733 1.844033750592034 7.948786762379222" Properties=species:S:1:pos:R:3:REF_forces:R:3 config_type=buildcell buildcell_config_i=45 RSS_min_vol_per_atom=7.0 buildcell_type=narrow gap_rss_group=ALL gap_rss_iter=0 buildcell_symmetry="1 P1 P 1 @ 0.01" vasp_rundir=run_iter_0/run_VASP_8k9wy5y5 REF_energy=-23.88206827 REF_stress="1.084098235912793 1.1263712954935663 1.114230646361957 0.03095414002186394 0.014421852441251153 0.017540416883606545" pbc="T T T"
Li       2.17995505       9.09618263       5.99778383       0.21841775       0.05924034      -0.29016679
Li       4.04635162       7.81486424       7.51013163       0.00470836      -0.08859187      -0.25588889
Li       1.99802873       4.18133892       0.31769759      -0.16402958      -0.41901836       0.20524623
Li       3.65812845       1.23645844       3.86943180       0.00385501      -0.05950819      -0.19487838
Cu       0.34309990       4.23091245       4.29659196      -1.10454157      -0.43418926       0.95810703
Cu       2.02643992       5.25155842       3.32930403       0.28745403      -0.28178451      -1.55015676
Cu       2.29901400       7.48423064       3.23499364       0.43500453       2.72696442      -0.42165965
Cu       0.60347378       4.73854550       6.58776929      -0.75494891       0.95900936       2.55924264
Cu       3.02074324       8.20125516       0.85167899       0.52379546      -0.48633216       1.17597651
Cu       1.34898631       2.73258095       7.73063498      -0.87738703       1.13418215      -1.24629583
Cu       2.02287095       3.59252286       5.54025666       2.37065108      -2.60635276       0.53194347
Cu       3.74103552       6.25050736       1.94472896       1.11951723      -0.12355695      -0.28672625
Cu       1.86099096       2.73819223       3.14127156       0.19095811      -0.40278775       0.23567923
Cu       3.62355573       3.92632074       2.13548532       0.10232688      -0.84418513      -2.47344876
Cu       2.57752914       6.14229239       5.70662082      -1.38717856      -0.05190581       1.23897742
Cu       0.75334455       7.05184242       4.79539626      -0.96860278       0.91881648      -0.18595121
20
Lattice="7.15622 0.0 0.0 2.8831350559738507 6.549734111963223 0.0 3.287202462881222 2.144590163812485 6.007555792483859" Properties=species:S:1:pos:R:3:REF_forces:R:3 config_type=buildcell buildcell_config_i=49 RSS_min_vol_per_atom=7.0 buildcell_type=narrow gap_rss_group=ALL gap_rss_iter=0 buildcell_symmetry="1 P1 P 1 @ 0.01" vasp_rundir=run_iter_0/run_VASP_sh3mjeaj REF_energy=-31.68557785 REF_stress="1.153717066865591 1.1454722530301449 1.1430927606130752 0.009129842309580156 -0.005335588367112442 -0.004280092532230264" pbc="T T T"
Li       6.25522955       7.43510932       2.72793155      -0.04130455       0.08711124      -0.30130065
Li       4.16109068       5.99233449       3.32097940      -0.17709683      -0.19085439       0.22770329
Li       7.40559523       1.51218239       1.76717701      -0.47198957      -0.13084513       0.48767852
Li       9.14704681       2.59286220       4.14685837      -0.14180024       0.39386936      -0.48765518
Li       3.26573842       5.80904386      -0.17249178      -0.54282944       0.69756783       0.32534105
Cu       5.57723308       5.52140033       0.65667492      -1.27575173       2.49248132       0.62272187
Cu       5.81995280       5.66236089       5.52887048       0.80812508       1.98188236      -1.40968505
Cu       5.22593314       2.82295872       2.26048142      -0.40754954      -0.79329755       0.07092281
Cu       8.58003806       5.03632194       3.48950020       0.79825311      -1.48819716       2.19893399
Cu       2.11607888       1.56938142       0.28034531      -0.81812866      -1.61171948       1.58821347
Cu      10.93763567       7.63367495       5.69669139       1.63864926      -2.90777104      -1.24120355
Cu       7.08830796       4.21437531       1.77136325       0.54987260       0.03730133       1.09131373
Cu       6.66713022       3.57874292       3.98128957      -0.28824326      -0.02481611      -0.41564931
Cu       7.45999769       3.10240281      -0.09227939      -0.98935179      -1.16129366      -1.68884969
Cu       7.54551375       3.07462526       5.96911981       1.34611218       1.82757906       1.88235797
Cu       8.18024780       6.29068140       1.85995636       0.20533293       1.95313019      -1.82025447
Cu       4.23650775       3.51814121       4.28572005      -0.38939782       0.59319794      -0.43008991
Cu       5.28743263       1.06439989       4.24620942       0.90565209       0.12515327      -0.22630724
Cu      10.24776690       4.36898526       1.73859225      -0.19347022      -0.51593521       0.61739953