22
Lattice="4.45365 0.0 0.0 -1.4560352275279147 9.097407949097246 0.0 -1.4560352275279147 -2.671264871392829 8.696388640071257" Properties=species:S:1:pos:R:3:REF_forces:R:3 config_type=buildcell buildcell_config_i=4 RSS_min_vol_per_atom=8.0 buildcell_type=narrow gap_rss_group=ALL gap_rss_iter=0 buildcell_symmetry="1 P1 P 1 @ 0.01" vasp_rundir=run_iter_0/run_VASP_2a9gqajm REF_energy=-36.5039496 REF_stress="0.65994341612103 0.6812710841423857 0.6736009843915457 7.33908349887713e-05 0.014066784365350788 0.006572479652550427" pbc="T T T"
Li      -1.32559983       4.86429932       4.85819044       0.00794228       0.19763612       0.02703754
Li       3.06915377       3.25296340       2.60239128      -0.27216568      -0.03559107      -0.41972879
Li       0.42605049       2.88195268       0.62687919      -0.28721480      -0.22185161       0.58460395
Li       1.32770634       6.55936878       5.77040660      -0.08061668      -0.04890125       0.14817571
Li       0.34921448       7.93708963       2.12792390      -0.15111241       0.51400531       0.08319650
Li       1.16033254       6.51258901       0.28223206       0.26184855       0.02412063      -0.19410733
Li       0.38701344       1.02694686       7.64693919       0.66815882      -0.11575672      -0.32495897
Li       1.04118607      -0.39384635       5.23490144      -0.14015832      -0.27054782       0.15615381
Li      -0.39705681       1.74473934       4.37717934      -0.01092629      -0.08055050       0.13703925
Li       1.92176789       2.58087236       5.69092808      -0.08257687       0.09295824       0.10515773
Li       0.71061911       5.52750765       2.77347918       0.21273903      -0.72961395       0.31924391
Cu      -0.95412259       6.35036465       7.27551429       0.47817922       0.48249143      -1.86907116
Cu       2.41081740       0.99916843       0.39961083      -2.55933621       1.74089011       2.17701283
Cu      -1.56117868       6.82751216       3.17047518       0.10395599      -0.81352191      -0.63244548
Cu       3.11087952       5.36476903       1.16666434      -0.47071169       0.89103421       1.38905765
Cu       3.21859781      -0.66259663       4.36748270      -0.15307563       0.92199938      -0.22423835
Cu      -1.71464086       1.99489800       8.06677228       0.05659679       0.54050106      -1.53008355
Cu       3.97134854      -0.02780036       1.82771027      -0.47432440      -0.91870172       1.37123387
Cu      -2.36517727       4.84231214       8.05562495      -0.34894402      -1.76253828       0.86564130
Cu       0.30107037       4.44505594       6.65668390      -0.52291402      -0.91442670      -0.58621547
Cu       1.16167051       1.43304971       2.44235401       1.08405865       0.44356631       0.72119546
Cu      -1.57565589      -2.01396047       8.40634268       2.68059769       0.06279873      -2.30390043
20
Lattice="7.53387 0.0 0.0 3.5904404840661153 6.623287273497888 0.0 3.5904404840661153 2.137707213263121 6.268823029695598" Properties=species:S:1:pos:R:3:REF_forces:R:3 config_type=buildcell buildcell_config_i=7 RSS_min_vol_per_atom=8.0 buildcell_type=narrow gap_rss_group=ALL gap_rss_iter=0 buildcell_symmetry="1 P1 P 1 @ 0.01" vasp_rundir=run_iter_0/run_VASP_exbzrxcw REF_energy=-33.29855663 REF_stress="0.7130128400260827 0.6949955088996391 0.6976173314911475 0.006258009404102772 0.010095480972580673 0.01085011497753594" pbc="T T T"
Li       5.45201750       4.59380224       3.69521980       0.00079251       0.18812027       0.19526468
Li       6.77764301       4.23690547       1.22169492      -0.07310264       0.36862466      -0.07799944
Li       7.06077700       2.47982216       3.14234010       0.35781195      -0.16926634       0.15752709
Li       6.81103075       1.02106306       0.80083461      -0.03129970       0.29333047       0.27719077
Li       4.18268667       2.36375250       4.69474341      -0.17100970       0.47541974      -0.20455809
Li       4.17185652       5.29240926       0.76819825       0.30551524      -0.30363949       0.06092742
Li       8.90280049       2.33715018       5.04257396       0.07866053       0.10667601      -0.79112900
Li       6.44236301       6.81142186       4.64283500      -0.08402189      -0.38145002       0.32569865
Li       9.00880047       5.32803147       0.65042612      -0.12392625      -0.25048417       0.27490354
Li       4.56499261       2.63551191       1.89961708      -0.06144905       0.03646773       0.03525502
Cu       3.77584611       0.90622737       0.55614549      -0.26639608      -2.95413684       1.49792345
Cu       2.35622746       1.58746708       2.56465420       0.11104744      -1.64799416      -0.27150013
Cu       2.51749363       2.81403860       0.36965953      -2.38655177       1.30106919       1.25791086
Cu      11.23744916       5.11934381       5.68246277       0.16183741       0.32237814      -0.60409888
Cu       9.77019244       7.73893430       5.08190276       0.77333617      -0.45719407       0.08195470
Cu      11.41977638       6.48433159       3.05266587      -0.19558067       0.18988813       0.75150625
Cu       7.58635243       4.34862767       5.13955207       0.90389762       0.76733598      -2.32343532
Cu       7.53859295       6.21296561       2.65565419      -0.42845172       0.45211012      -1.04850592
Cu       9.23568809       3.73266534       2.55048280      -0.26087155       1.02145820      -0.17218076
Cu       9.24498555       5.55589519       4.04930458       1.38976216       0.64128646       0.57734510
20
Lattice="4.53514 0.0 0.0 0.0 8.39465 0.0 -0.1746990203585745 0.0 9.703267474303992" Properties=species:S:1:pos:R:3:REF_forces:R:3 config_type=buildcell buildcell_config_i=12 RSS_min_vol_per_atom=8.0 buildcell_type=wide gap_rss_group=ALL gap_rss_iter=0 buildcell_symmetry="1 P1 P 1 @ 0.01" vasp_rundir=run_iter_0/run_VASP_kj3y2kcy REF_energy=-30.94946787 REF_stress="0.5950593967061837 0.561527110650746 0.6009935061399194 0.003901302184074412 -0.002379597174558896 0.001239413067336153" pbc="T T T"
Li       3.35239949       2.83354567       2.32657042      -0.41215654       0.46658272      -0.04791028
Li       3.45503106       5.52386256       2.23838787      -0.38099725      -0.51188277      -0.33134473
Li       1.12189257       5.62406167       5.09949970      -0.65743953      -0.41783832       0.20519696
Li       1.01822729       2.80099004       5.09987417      -0.52803389       0.20745439      -0.34071122
Li       3.31234613       6.85337075       4.33590245      -0.04874057       0.63350528       0.29883228
Li       3.23192115       1.24866811       4.53981897      -0.06667953      -0.47144601       0.41002310
Li       2.71383052       5.40605509       8.95282058       0.19706774       0.14333145       0.03196989
Li       2.78205530       2.85411736       8.66378089       0.14353195      -0.10312040       0.22386849
Li       0.86729044       1.36108210       2.78500643       0.12789563      -0.46014056      -0.39386153
Li       0.95929851       6.98459629       2.87093642       0.03437465       0.30070848      -0.42473856
Cu       3.09207364       5.53252837       6.33734178       0.27821047      -0.45832978       0.69187975
Cu       3.04647321       3.12960394       6.21660713       0.53343907       0.54924946       0.12739046
Cu       5.43252325       5.15145022       0.80138676       0.51394785       2.28265855       0.14998528
Cu       5.43132301       3.12107942       0.95134219       0.01642663      -2.89506494      -0.18867857
Cu       0.60326563       3.01721054       7.46599419      -0.23767677      -0.82290964       0.28359151
Cu       0.54284604       5.30126521       7.71955862       0.04126859       0.76206897       0.01160178
Cu       0.17339669       7.06835365      -0.16012384      -1.18360801       0.77101930      -0.94506999
Cu       0.10052664       1.08230014      -0.13136460      -0.26180380       0.33819174       0.10955719
Cu       2.32816526       1.24308677       0.69223970       0.66894165      -0.24812313      -0.08893469
Cu       2.19414407       7.27781758       0.87371597       1.22203168      -0.06591477       0.21735288
22
Lattice="6.88665 0.0 0.0 0.0 6.88665 0.0 0.0 0.0 9.02825" Properties=species:S:1:pos:R:3:REF_forces:R:3 config_type=buildcell buildcell_config_i=27 RSS_min_vol_per_atom=10.0 buildcell_type=narrow_even gap_rss_group=ALL gap_rss_iter=0 buildcell_symmetry="1 P1 P 1 @ 0.01" vasp_rundir=run_iter_0/run_VASP_n47jfy4o REF_energy=-37.2167356 REF_stress="-0.013959870116462008 -0.010677088866431173 -0.021533697441405084 -0.00127535302504896 -0.00042672119985037797 3.973186175205485e-05" pbc="T T T"
Li       1.04312371       0.94207502       5.50251543       0.25015032       0.31600580       0.40232777
Li       6.04550070       5.90733321       5.41433288      -0.44696791      -0.08049682       0.17239857
Li       6.08866983       1.07019576       3.54355599      -0.22273688       0.11645451      -0.51051831
Li       1.01015746       5.84685594       3.54393045       0.23367596      -0.26795675      -0.29524773
Li       5.91739394       0.76457343       9.77937979      -0.52783328       0.47201243       0.95921388
Li       0.93722354       5.82946543       9.98329631       0.42454033      -0.22993665       0.35429975
Li       0.86509905       0.85222192      -0.77705670       0.63771019       0.34655251      -0.80129394
Li       5.90817092       5.89995053      -1.06609639      -0.12015156      -0.50451863      -0.43752786
Li       1.11270291       4.29858213       7.73054288       0.34443434       0.01217348       0.41300945
Li       5.75707862       2.53909626       7.81647287      -0.50505939      -0.01107220       0.00899707
Li       2.53898947       1.35236900       1.18125804       0.01359751       0.09099134      -0.15790951
Li       4.18171878       5.80176331       1.06052339       0.00162155      -0.68270122       0.35773146
Li       5.74039518       4.09152286       3.19869864      -0.35873006       0.31549815       0.39271775
Li       1.18682730       2.67300679       3.34865407       0.33559881      -0.04778849       0.32764694
Li       4.27592504       1.13703081       5.54888056       0.08791424       0.27674646       0.24365664
Li       2.52717571       5.67344494       5.80244498       0.00585002      -0.11844994      -0.36042027
Li       3.47768683      -0.17630402       7.98557258      -0.29372220       0.32210760      -0.38229805
Li       6.84814177       3.37563280       1.13625344       0.08594502      -0.10202866      -0.30886997
Li       3.54642495       0.09312801       3.35511743      -0.15595610      -0.12306945      -0.12840718
Li      -0.03092124       3.47645134       5.68676533      -0.00828756      -0.20320938      -0.29169284
Li       3.39540758       3.42475910       6.66055400       0.12085846      -0.13747868       0.02986667
Li       3.32370434       3.52457758       2.39268650       0.09754819       0.24016458       0.01231972
24
Lattice="4.47602 0.0 0.0 -1.4645185965122087 6.859400941807521 0.0 -0.7851472770287873 -1.3976341043991336 10.703195808729033" Properties=species:S:1:pos:R:3:REF_forces:R:3 config_type=buildcell buildcell_config_i=44 RSS_min_vol_per_atom=7.0 buildcell_type=narrow gap_rss_group=ALL gap_rss_iter=0 buildcell_symmetry="1 P1 P 1 @ 0.01" vasp_rundir=run_iter_0/run_VASP_511882yi REF_energy=-35.2795594 REF_stress="1.156009911082832 1.1445314369737682 1.1499932726268378 -0.007217669868522901 -0.0046785196043225155 0.006945230566679857" pbc="T T T"
Li      -0.86558018       5.00500812       9.76350078      -0.08581890      -0.62593277      -0.40235986
Li       3.60350702      -0.41475916       6.06913434      -0.83300698       0.50771643      -0.28967171
Li       1.31565681       3.70286768       0.34942187      -0.36069685       0.04282726       0.05304368
Li       3.42790377       0.68946774       2.71387969      -0.77054909      -0.05603432       0.17424831
Li       1.08764287       4.84046497       2.52714961       0.09465623       0.03859928       0.41009315
Li      -0.55312763       2.96893661       4.01736977      -0.17440286       0.21867608       0.31324604
Cu       0.99669461       1.88296767       2.50602874       0.33671579       3.04655203      -2.59202614
Cu       1.59642790       1.99939711       4.63302464       0.28635844      -1.02100002       2.02683381
Cu       0.68949867       0.84020052       8.94641459       0.82738475      -0.50769906       2.91922162
Cu      -0.40795091       2.70746111       8.68936601      -0.95758508       2.14476827       1.74736414
Cu       3.55715292       2.25316438       6.50867968       0.75014565      -1.52726124      -3.01064870
Cu       1.66038810       3.30324013       9.14353311       2.82506003      -3.48959246       1.54873328
Cu       2.24917043       1.16732935       0.34204580       2.31727006       1.22931176      -0.42433661
Cu       0.80948527      -0.12988918       1.44083740      -1.35908969      -2.35227467      -1.84747974
Cu       1.15050195      -0.00868209       3.53429975       0.21934367      -2.11336936       2.82394806
Cu      -1.37177648       4.18370710       7.26527149      -0.84242237       3.32027920      -0.19998691
Cu       2.82164225      -1.64351581       8.68149824      -0.71679541       4.67784023      -1.35104900
Cu       1.90582866       4.19779263       4.97185273      -0.60475078       0.71045982       0.20851226
Cu      -0.71349639       0.16697012      10.48894017      -2.27497580      -0.31241132       1.76544583
Cu       1.34242903       2.04129102       7.15983885      -1.02499613       0.96918617      -2.64336050
Cu      -0.47949352       5.19862798       5.15441730       1.08258147      -0.20128452       0.80420498
Cu       1.11873910      -0.41875791       7.38638199       0.85512303      -2.28014340      -2.47456563
Cu       2.90564308       0.90249242       8.33278008       0.22175591      -2.53342156       0.73025695
Cu       3.34461162       3.19065376       1.70693905       0.18869491       0.11420817      -0.28966729
16
Lattice="6.6797 0.0 0.0 0.0 7.16243 0.0 -3.339850444981753 0.0 6.662296796905342" Properties=species:S:1:pos:R:3:REF_forces:R:3 config_type=buildcell buildcell_config_i=72 RSS_min_vol_per_atom=9.0 buildcell_type=wide gap_rss_group=ALL gap_rss_iter=0 buildcell_symmetry="1 P1 P 1 @ 0.01" vasp_rundir=run_iter_0/run_VASP_my69vka5 REF_energy=-27.03112003 REF_stress="0.25178930413962014 0.2853634959432308 0.264352014691438 0.0029849742705720054 -0.0027608614072718845 0.0009198815354477554" pbc="T T T"
Li      -1.93950619       3.83328161       5.40352977       0.02594119      -0.04625170      -0.23479689
Li       5.48133015       0.24247770       1.30012218      -0.60937368      -0.14040802       0.04548543
Li       2.14709885       6.97328044       5.29181348      -0.46859068       0.07120505      -0.14389047
Li       1.40492799       3.26898019       1.27696290      -0.00742479       0.00274732       0.01233051
Li       5.35322339       3.12399394       1.15104410      -0.27816543       0.07302515       0.21230724
Li      -2.04540636       6.79525385       5.37018565       0.50232377       0.07624860      -0.04375339
Li       1.25986958       0.12466267       1.47010076       0.40625001      -0.12223127      -0.36846781
Li       1.96659994       3.85386086       5.19628610       0.05866398      -0.16870473       0.32840057
Li       3.28541186       6.73395032       2.89228074       0.24401905      -0.20825156      -0.07062062
Li       0.03756922       0.37950807       3.62574733      -0.10563539       0.33097624       0.48518480
Li      -0.06017124       3.32687088       3.65356698      -0.19347317      -1.26405004      -0.05168591
Li       3.23407904       4.10304143       2.88529573       0.72295355      -0.04907700      -0.11390892
Cu       1.17282443       5.17585549       3.41016818       0.35185454       0.91425585      -0.43281859
Cu       2.20759760       1.86445416       3.13644684      -1.46991032       0.03431459       0.37736499
Cu      -1.16350271       5.34171213       3.39513459      -0.72715059       0.39791629      -0.30152318
Cu       4.41980301       1.74454362       3.22502223       1.54771795       0.09828522       0.30039225
24
Lattice="4.44808 0.0 0.0 0.0 10.97895 0.0 0.0 -5.489474999999997 9.508049606879164" Properties=species:S:1:pos:R:3:REF_forces:R:3 config_type=buildcell buildcell_config_i=74 RSS_min_vol_per_atom=9.0 buildcell_type=wide gap_rss_group=ALL gap_rss_iter=0 buildcell_symmetry="1 P1 P 1 @ 0.01" vasp_rundir=run_iter_0/run_VASP__tsikvnq REF_energy=-39.33558117 REF_stress="0.25406082902192856 0.2908500223572854 0.29403720385382376 0.003319758658907526 0.0005926721421798443 -0.0009759420963334532" pbc="T T T"
Li       1.17036828      -0.48006566       3.46350771      -0.38858021      -0.05438649       0.13607680
Li       4.23838623      -2.33637763       8.18904150      -0.48839342       0.05728254      -0.22083716
Li       2.76131134       2.85594335       7.35795868      -0.46236151      -0.26277114       0.12074405
Li       3.38163913       3.13017203       1.24902144      -0.15650045       0.29633668       0.16392533
Li       0.38619299       8.07734795       1.93065171      -0.35893677      -0.28729455       0.19187218
Li       1.78846119       4.92195376       6.14073548      -0.00242647       0.02888150      -0.44556767
Li       2.50393836       5.92039559       0.91191058       0.78999727       0.57563018      -0.59483722
Li       1.08946950       3.12822366       3.73337987       0.07197160       0.15995971       0.06662433
Li       4.02299568       7.29642046       4.75174986       0.32669009      -0.02783048       0.06794259
Li       1.89090904      -2.42806803       5.60302555      -0.33096298      -0.00024344       0.26277696
Li       3.27586221       1.98108102       4.63985066      -0.08164269      -0.17375632      -0.05079252
Li       0.26487496       0.65440545       8.62061954      -0.24892806      -0.06723667       0.29340379
Li       1.87544793      -4.05044690       8.07747921       0.26144332       0.22760695       0.33156181
Li       4.83963451       3.62193808       8.75811502       0.28807524      -0.00739845       0.14409031
Li       3.32569037       0.27627809       1.91697100       0.21296150      -0.17607947       0.18001269
Li       2.52153401       8.99150255       0.87278363       0.07402124       0.13788187      -0.27038771
Li      -0.33750656       5.61955944       7.47563480      -0.33745216       0.22341403       0.04070420
Li       1.07231657       1.56730292       1.35891942       0.08357715       0.11554935      -0.30452268
Cu       1.20640083       4.35456134       1.56707690      -0.97437046      -0.61058007      -0.14016898
Cu      -0.41031355       4.82169035       5.08959527      -0.26089460      -0.57504529      -0.16822673
Cu       2.53807708       7.39986011       2.75437765      -0.17453722       0.12341183       0.67785725
Cu       3.22515846      -0.61965731       4.65163285       0.71948398      -0.01950968       0.08906862
Cu       4.82027130       2.02930540       6.67920206       0.63765302       0.27121261      -0.68246357
Cu       1.79757352      -1.19190101       8.01085461       0.80011258       0.04496478       0.11114334
20
Lattice="3.92417 0.0 0.0 0.9505400811256997 5.240257593580067 0.0 1.9435075364764929 -0.28575871729199476 10.796871314670314" Properties=species:S:1:pos:R:3:REF_forces:R:3 config_type=buildcell buildcell_config_i=82 RSS_min_vol_per_atom=6.0 buildcell_type=narrow_even gap_rss_group=ALL gap_rss_iter=0 buildcell_symmetry="1 P1 P 1 @ 0.01" vasp_rundir=run_iter_0/run_VASP_9elzpa09 REF_energy=-25.41099685 REF_stress="1.746994050039505 1.8022103216799106 1.8484963640283325 0.023715407313225977 -0.0027434277238456133 -0.02576928387544725" pbc="T T T"
Cu       4.15304403       4.70718548       7.57827165       0.26011987       1.08800601      -2.19113668
Cu       2.86714799       0.21007163       3.25995482      -1.04116591      -0.68569512       0.07100072
Cu       2.02036619       4.11373726       2.69710656      -1.93404386      -1.76331784       0.91831234
Cu       5.01002871       0.87116332       8.00624434      -0.61083402       0.65418539       0.03433998
Cu       4.97999510       2.59127141       6.44328032       0.58664109       2.10042750       3.07440157
Cu       1.80618999       2.07061633       4.21252395      -0.60219737       1.18381408      -1.85208467
Cu       4.86499598       4.26134049       5.00390561       1.38161357       2.54694102      -1.97537297
Cu       1.83984160       0.55868083       5.79705576      -0.08818863      -3.51903553       1.71734237
Cu       0.63463609       2.99411315       0.95497424       0.35304439       2.11628446       0.90975450
Cu       6.16671306       1.91141412       9.69762834      -0.85437930      -0.76083355       1.15572689
Cu       2.63983564       1.91812846       1.32689542      -0.22420625      -1.26508482      -0.52293239
Cu       4.01244022       3.30385272       9.34654180       2.87628004      -1.38041184       2.26430601
Cu       4.81298651      -0.02962459      10.08769305       0.49447634       0.76543334       2.33226779
Cu       2.04580359       4.86200311       0.59349649      -0.23740031       0.83267085      -1.13403547
Cu       2.98214935       3.48562293       5.51791399      -0.50572574       1.05746698       1.74494749
Cu       3.75251902       1.39270169       5.23681735      -0.08301703      -2.32806294      -1.94816501
Cu       3.02806776       1.81562792       7.55085832       0.63272459       1.65209193      -1.01948892
Cu       3.78600346       2.89487474       3.33958902       0.28872837       1.36981317      -0.54104425
Cu       6.18338561       3.99807588       8.39819644      -2.15640237      -3.72242172      -1.32577863
Cu       0.70701072       1.08267735       2.41230763       1.46393254       0.05772864      -1.71236068
14
Lattice="3.55334 0.0 0.0 -0.23918041655816819 6.742609113009226 0.0 -0.9470165819531828 -2.1180527964354416 7.240976792188863" Properties=species:S:1:pos:R:3:REF_forces:R:3 config_type=buildcell buildcell_config_i=85 RSS_min_vol_per_atom=6.0 buildcell_type=narrow_even gap_rss_group=ALL gap_rss_iter=0 buildcell_symmetry="1 P1 P 1 @ 0.01" vasp_rundir=run_iter_0/run_VASP_z6hupke2 REF_energy=-18.03713657 REF_stress="1.6803908172281827 1.6754786121143233 1.7078652015554365 -0.008910003981253951 -0.007003690288775434 0.010884903807479153" pbc="T T T"
Cu       2.66368282       0.96006837       3.92235579      -0.65039270       0.11912437      -2.64997168
Cu       0.52188832       2.69784492       4.55781981       1.23808388       0.84975118      -0.22564170
Cu       2.87148364      -1.61416058       5.66254756      -2.36599175      -0.49845971       0.53072741
Cu       2.55335811       4.32884088       3.46369327      -0.02017434      -0.94590700       1.00675785
Cu       0.68696478       3.95357886       6.73457316       0.47006355       1.98439564       1.58066970
Cu       1.42215701      -0.63712014       2.57700243      -0.15640352       1.22594983       0.02631263
Cu       2.92501511       5.29127248       1.45356770       1.55916376       1.08231518      -1.85863815
Cu       1.18219873      -0.33379225       7.08630962      -0.61993964      -1.92293963       0.54778076
Cu       2.38503524       2.81111555       6.22202251      -0.22326855      -0.36065798      -0.83745850
Cu       0.57289478       1.73713306       7.72105301      -0.55801332       1.79268704      -0.08117071
Cu      -0.63207118       0.76337590       6.09193514      -0.07104341      -1.92389067       0.07172322
Cu       0.26935462       1.05924294       1.08743030       1.95273316      -4.92155304       0.51739323
Cu       3.29217831       2.91832620       1.61553624      -0.90564576       2.95361798       2.77973321
Cu       0.96431122      -0.47604562       4.79985848       0.35082863       0.56556681      -1.40821726
11
Lattice="4.13964 0.0 0.0 0.0 6.0863 0.0 0.0 -3.0431499999999985 5.27089041505323" Properties=species:S:1:pos:R:3:REF_forces:R:3 config_type=buildcell buildcell_config_i=88 RSS_min_vol_per_atom=6.0 buildcell_type=narrow_odd gap_rss_group=ALL gap_rss_iter=0 buildcell_symmetry="1 P1 P 1 @ 0.01" vasp_rundir=run_iter_0/run_VASP_t8z8k6um REF_energy=-14.46542633 REF_stress="1.735719778198626 1.743631001740055 1.7325470793625501 -0.010511538866164936 0.0007587275985796234 -0.013234662511435395" pbc="T T T"
Cu       3.06451907      -0.01382582       1.39267482      -1.07259529      -1.42218035       0.18791400
Cu       3.16715064      -1.91656534       4.58352321      -2.34383826       0.27491907       2.67925754
Cu       3.17276893       1.96989287       4.55999052      -0.15847527      -1.26224643       0.14624000
Cu       1.17904835       2.99680762       3.89641148       0.85038999      -0.07439662      -1.20938057
Cu       1.14898857       4.74497198       0.49146173       0.86216587       0.32950925       1.97435920
Cu       1.06856359       1.04871749       0.69537719       0.66933334       0.76137863      -0.74386207
Cu       4.04883759      -1.66280537       2.78201008       1.97248018       2.13329185      -2.95851606
Cu      -0.02257763       3.04990282      -0.14247482      -0.60017625      -1.39222415       0.82319556
Cu      -0.05443827       1.53266726       2.52034585       0.42228182       1.03028908       1.03548813
Cu       1.55729622      -0.06006417       3.48475774       1.04984816       0.49179074      -0.84521672
Cu       2.55974292       3.22837812       1.75561357      -1.65141430      -0.87013107      -1.08947901
