8
Lattice="4.36095 0.0 0.0 0.0 4.49148 0.0 0.0 0.0 6.80681" Properties=species:S:1:pos:R:3:REF_forces:R:3 config_type=buildcell buildcell_config_i=3 RSS_min_vol_per_atom=8.0 buildcell_type=narrow gap_rss_group=ALL gap_rss_iter=0 buildcell_symmetry="1 P1 P 1 @ 0.01" vasp_rundir=run_iter_0/run_VASP_f7o04ocj REF_energy=-13.10398329 REF_stress="0.6677679054109439 0.6666526115058888 0.6832817202658811 -0.004152060555395167 0.0017862550937555164 0.0024602450871064416" pbc="T T T"
Li       3.22673906       0.93972780       4.42379212       0.19563755       0.11666756      -0.35878414
Li       3.32937063       3.51451043       2.42437304      -0.25043539      -0.23677411       0.20316903
Li       1.34180364       3.61466924       4.31207583      -0.62820087      -1.10397041      -0.19637575
Li       1.23813836       0.90721246       2.40121376      -0.33951748       0.27632749       0.16116831
Cu       1.02079105       1.13824977       5.35017811      -0.05262071       0.87374979       1.31775626
Cu       0.94036607       3.06061910       1.31556484       0.63915514      -0.00877077      -1.11853103
Cu       3.27355277       3.02067184       5.66923477       0.30309459      -0.03126916       0.87924842
Cu       3.34177755       1.33633061       1.14166528       0.13288717       0.11403960      -0.88765111
6
Lattice="4.85394 0.0 0.0 0.0 4.90129 0.0 0.0 -2.4506449999999993 4.244641651314632" Properties=species:S:1:pos:R:3:REF_forces:R:3 config_type=buildcell buildcell_config_i=6 RSS_min_vol_per_atom=8.0 buildcell_type=narrow gap_rss_group=ALL gap_rss_iter=0 buildcell_symmetry="1 P1 P 1 @ 0.01" vasp_rundir=run_iter_0/run_VASP_1y1wgjyf REF_energy=-10.16318532 REF_stress="0.6772215869048338 0.6816938452108015 0.6837378922262701 0.004805885549718789 -0.001287781586133603 -0.000590027983012246" pbc="T T T"
Li       3.75589148       0.64630626       1.47693736      -0.47688467       0.37259794      -0.21025368
Li       3.85852305      -1.58115288       2.94345202      -0.72213748       0.04199117      -0.32938326
Li       3.86414134       0.97434832       4.06330164      -0.68757195      -0.46567826       0.50210975
Cu       0.97115896       3.72913638       1.18991618       0.53309363       0.24379930      -0.08851102
Cu       0.94109918       1.44240843       0.18424530       0.46990528       0.28599917       0.21567754
Cu       0.86067420       1.84143655       2.68284057       0.88359519      -0.47870931      -0.08963933
10
Lattice="5.71224 0.0 0.0 -2.4554629391760576 5.43202040153872 0.0 -1.3583151278607917 -2.739809565883911 5.467679226016788" Properties=species:S:1:pos:R:3:REF_forces:R:3 config_type=buildcell buildcell_config_i=8 RSS_min_vol_per_atom=8.0 buildcell_type=narrow gap_rss_group=ALL gap_rss_iter=0 buildcell_symmetry="1 P1 P 1 @ 0.01" vasp_rundir=run_iter_0/run_VASP_pdsp7mwp REF_energy=-15.89306557 REF_stress="0.6248742502184939 0.6320887422351282 0.6365159225022191 0.0037135355820066655 0.012042691997568812 -0.011030179051780107" pbc="T T T"
Li       3.06469841       2.57049327       2.68082372       0.04993250      -0.35304129       0.00908154
Li       1.44743315       3.91119755       0.74811904      -0.23543129       0.15098926       0.03579388
Li      -0.64129466      -0.99689148       4.52660494      -1.14995735      -0.51527258       0.62382278
Li       5.80438649      -0.25955807       2.00993108       0.19490700       0.09311993      -0.21726731
Li       1.55360686       0.08372380       4.08606814       0.89980629       0.52781707      -0.17498728
Cu      -1.27309598       1.48908302       0.89517042       0.46329344       0.66620180       0.21878432
Cu       0.46039892       2.06738278       2.56657665       1.29534274       1.40809916      -1.72144541
Cu       3.21143566       1.48392513       5.49426942      -0.79867555      -0.27846877       0.81759108
Cu       2.75240171       0.65114483      -0.49080766       0.00928738      -0.40387885       0.13936362
Cu      -0.92679979       1.27131151       3.88212293      -0.72850516      -1.29556574       0.26926277
6
Lattice="4.52751 0.0 0.0 0.0 4.97147 0.0 0.0 -2.485734999999999 4.305419314152224" Properties=species:S:1:pos:R:3:REF_forces:R:3 config_type=buildcell buildcell_config_i=9 RSS_min_vol_per_atom=8.0 buildcell_type=narrow gap_rss_group=ALL gap_rss_iter=0 buildcell_symmetry="1 P1 P 1 @ 0.01" vasp_rundir=run_iter_0/run_VASP_g710llmt REF_energy=-10.11510233 REF_stress="0.6534075669056225 0.6948392146080179 0.6930709870273499 -0.004977660606492854 -0.004660576607510063 -0.003883172491240986" pbc="T T T"
Li       1.55884126       3.68330219       0.06476885       0.07964239      -0.32567861      -0.20822497
Li       3.17064314      -1.87197965       3.17839361      -0.51162742      -0.48497471      -0.51148969
Li       0.15792128       0.71391416       1.05666457      -0.46430735       0.02336893       0.36020673
Cu       0.80884116       3.56131754       2.31561643       0.36683544      -0.02089118       0.62164352
Cu       3.79712108       2.53629335      -0.17249178       0.08247957       0.99414333      -0.35180933
Cu       2.20752625       1.02064120       1.97465464       0.44697736      -0.18596776       0.08967373
18
Lattice="4.2137 0.0 0.0 0.0 9.05053 0.0 0.0 -4.5252668592131675 8.327373874938425" Properties=species:S:1:pos:R:3:REF_forces:R:3 config_type=buildcell buildcell_config_i=13 RSS_min_vol_per_atom=8.0 buildcell_type=wide gap_rss_group=ALL gap_rss_iter=0 buildcell_symmetry="1 P1 P 1 @ 0.01" vasp_rundir=run_iter_0/run_VASP_6pncu6v0 REF_energy=-27.9253168 REF_stress="0.5827556510616136 0.6240631543485821 0.6264402182256584 0.009283048240070788 0.007536018191284795 -0.004099391630568474" pbc="T T T"
Li       4.31859027       1.33502399       1.41361439      -0.30579545      -0.10067991      -0.45857268
Li       4.42122184       3.15299739       6.95511464      -0.46920896      -0.27503424      -0.09888557
Li       0.10270243      -3.09967237       6.93158090      -0.21808252      -0.27292533       0.09184373
Li      -0.00096285       7.65533721       1.30227256      -0.22691017      -0.06538947       0.09075176
Li       3.18389564       3.48897042       1.96619018      -0.30861420       0.02437877       0.42284845
Li       3.10347066       0.74368159       6.22011665      -0.23208473       0.28941703      -0.19570207
Li       0.96319818      -0.98619874       6.33525679       0.40221016       0.10008148      -0.56045670
Li       1.03142296       5.37698433       1.99620714       0.41128610       0.00186325       0.39323963
Li       2.05241173       0.01109226      -0.11509936       0.47594373       0.12023732       0.05487889
Cu       3.89917851       1.03477201       3.77313535      -0.76300411      -0.21962661       0.54163963
Cu       3.80143804       3.61565508       4.52371943       0.39024231      -1.16244770      -0.35102563
Cu       0.24632020       5.70235521       4.40298478       2.20837456       0.01139351      -0.40634414
Cu       0.37297765      -1.29080459       3.66948612      -0.78549168       2.61070603       0.42891847
Cu       1.77461591       2.86108202       5.20418640      -0.76234911      -0.40859000      -0.27447282
Cu       1.74336495       1.70791741       2.99247210       0.89979555       0.25370069       0.48748263
Cu       2.38678580       7.26643784       3.24603653       1.05509984      -0.31379459      -1.19289955
Cu       2.49313205      -2.96354259       5.21945797      -1.76117956      -0.60036319       1.35664190
Cu      -0.03850823      -0.06769406       8.38854150      -0.01023175       0.00707294      -0.32988592
24
Lattice="5.3802 0.0 0.0 -2.690099999999999 4.659389877441037 0.0 0.0 0.0 15.28525" Properties=species:S:1:pos:R:3:REF_forces:R:3 config_type=buildcell buildcell_config_i=14 RSS_min_vol_per_atom=8.0 buildcell_type=wide gap_rss_group=ALL gap_rss_iter=0 buildcell_symmetry="1 P1 P 1 @ 0.01" vasp_rundir=run_iter_0/run_VASP_6mkd5_3n REF_energy=-37.11998072 REF_stress="0.6634634919458687 0.6536252328891804 0.6596388991634948 0.0004924861714721633 0.0024789113687209287 0.004484509907785568" pbc="T T T"
Li      -0.47025255       4.56260627       2.67058757      -0.46647415      -0.05864667       0.06298670
Li       1.68547195       2.79802555       2.58240502      -0.10664791       0.28650342       0.29454523
Li      -0.85532371       1.99764964       2.55887128       0.02313569      -0.40899308       0.41099004
Li      -1.47891296       2.77509912      12.63285830      -0.46959906       0.44081660      -0.11860850
Li       1.03744122       1.72957814      12.50693950      -0.51575499       0.27792454       0.70216597
Li       0.46369521       4.47514959      12.71085601       0.80131112      -0.10755407      -0.41245744
Li       0.25134146       1.44034315       9.09883774       0.56741602       0.53744606      -0.57328170
Li      -1.51406672       3.57905066       8.80979804      -0.19464048      -0.61421122       0.15491141
Li       1.09490695       4.17600066       8.83717350      -0.32647999       0.10795868      -0.03346890
Li       1.52905889       3.51223397       6.30380776       0.06967777      -0.44109367      -0.00990146
Li      -1.20951589       4.35013622       6.33162741       0.38963511       0.18701290      -0.05678539
Li      -0.44791496       1.66382801       6.21089277      -0.21559479       0.28567189       0.56032733
Cu       3.11303418       2.62278587       4.42779864       0.59767804       4.40989186       0.16399327
Cu       3.60482436       0.64598153       4.57775407       1.63808775      -3.44987831       0.00955081
Cu       1.38144992       1.23839128       4.41276504      -2.47095918      -0.71563173       0.17257453
Cu       1.72307788       0.52607099      10.83034498      -0.52851043      -1.71282450      -0.46667687
Cu       4.02154761       1.09219764      10.75704115       0.24025287      -0.04063159       0.31420681
Cu       2.24954449       2.75106069      10.78580039       0.45838547       1.46199409      -0.47585602
Cu       1.44091143       0.12202555      14.24848245       0.26856657      -0.14389301       0.54566310
Cu       2.01529902       3.51948873      14.42995871      -0.53161595      -1.62520258      -0.99560445
Cu       4.63835084       1.12556406      14.22177070      -0.13868929       1.14069383       0.56679343
Cu       3.21435908       3.56761497       1.08846980       1.97624377      -1.20486842       0.49098448
Cu       0.68673073       1.24448325       0.98900940       0.44628233       0.69078893      -0.67491969
Cu       3.97787655       0.06503710       1.10664946      -1.51170631       0.69672605      -0.63213270
24
Lattice="7.98217 0.0 0.0 -1.3276873060149357 7.870977342512606 0.0 -3.3272406305677564 -3.935487823863134 6.838469257408716" Properties=species:S:1:pos:R:3:REF_forces:R:3 config_type=buildcell buildcell_config_i=16 RSS_min_vol_per_atom=8.0 buildcell_type=wide gap_rss_group=ALL gap_rss_iter=0 buildcell_symmetry="1 P1 P 1 @ 0.01" vasp_rundir=run_iter_0/run_VASP_5ao3u8y2 REF_energy=-36.6179879 REF_stress="0.6098948763102561 0.606707592683904 0.6189417954150689 0.005431498835412292 -0.002258465111164353 0.00032063833246018117" pbc="T T T"
Li       2.83049100       0.57536361       1.36387559      -0.32663179       0.31108565      -0.20838091
Li       5.35365368      -0.61260506       1.27569304      -0.16208066      -0.27808660      -0.02864655
Li       3.36671904       1.17214965       5.49241508      -0.22491578      -0.14972230       0.38875397
Li       4.82762941      -1.14174657       5.49278954       0.10117069      -0.21439035      -0.25289591
Li       4.56170335       3.15497103       1.94763611      -0.28728158       0.09743707       0.31737185
Li       2.06074726       4.42339570       2.15155262      -0.12328836       0.29251622      -0.10161346
Li       0.69148591      -1.23663528       4.86490625       0.51774431       0.26841238      -0.44095248
Li      -0.80486496       1.10215890       4.57586655      -0.48141692      -0.06361106       0.28047872
Li       2.40604672       2.92137432      -0.11509936      -0.31113559      -0.40559392       0.24650953
Li       4.23156750       4.90063141      -0.02916937       0.25372506       0.39816528      -0.10071444
Li       3.06415834      -0.83997836       3.41788491      -0.30744431      -0.70829678       0.14045119
Li       4.75207062       1.10746152       3.29715026       0.54123075       0.14682199       0.05401836
Cu      -0.90904986      -0.87125282       2.82760192       0.07712201       1.95375938      -0.23447332
Cu       0.94962297       0.74913320       2.97755736       0.11048778      -0.26673935      -0.12850879
Cu       3.82687842       4.93468262       3.73019653      -0.02023642       0.51924071       0.11507743
Cu       2.74405584       2.86012143       3.98376095       0.07647832      -0.40768164      -0.24311860
Cu       0.30045476       4.43447088       0.49122250       0.49279951       0.90598119      -0.04251681
Cu       6.34988163       3.19251036       0.51998173      -0.45104965      -0.26049452      -0.35801997
Cu      -1.07194453       2.99931363       6.29573340      -0.96429814      -1.48377440      -0.07933342
Cu       1.14412458      -2.87305769       6.47720967       0.26702112       1.63048000       0.26393413
Cu       3.43561963      -2.96370531       6.72783576       1.27777112      -0.79650135      -0.10421547
Cu      -0.27591565       6.96188152       0.13562400      -0.42288205       0.27879506       0.26047559
Cu      -1.84243662       5.02619079       3.45539823       1.15135804      -2.47221915       0.27290064
Cu       0.44303704       2.98128025       3.57303829      -0.78424745       0.70441651      -0.01658127
16
Lattice="6.01536 0.0 0.0 -0.9557706927304451 6.040503067246763 0.0 0.0 0.0 9.24594" Properties=species:S:1:pos:R:3:REF_forces:R:3 config_type=buildcell buildcell_config_i=20 RSS_min_vol_per_atom=10.0 buildcell_type=narrow_even gap_rss_group=ALL gap_rss_iter=0 buildcell_symmetry="1 P1 P 1 @ 0.01" vasp_rundir=run_iter_0/run_VASP_5mmcexjo REF_energy=-27.00961306 REF_stress="-0.002383837986659005 0.001673145778810256 -0.025071853495117483 -0.00039599763956311003 -0.0009800022541934224 -0.001272288980837936" pbc="T T T"
Li       0.53879121       3.91890108       7.96072025      -0.24088196       0.02635049       0.34088372
Li       0.64142278       3.90931217       1.32657491      -0.61891303      -0.16635270      -0.65232091
Li       2.28210437       3.05106665       5.92600007      -0.31244658      -0.34559647      -0.46027097
Li       2.17843909       2.92798140       3.22641952      -0.14708404      -0.73071852       0.62170582
Li       3.21942648       1.21940730       1.17749127       0.06704447       0.09635881      -0.08700319
Li       3.13900150       1.30945222       7.92738168       0.14012718       0.22693694       0.30366244
Li       3.01582893       4.45379723       1.49653222       0.89642181       0.00945733      -1.13524833
Li       3.08405371       4.60178042       7.75349784       0.51577435       0.02301275       0.87120144
Li       4.89876814       5.03263374       3.15788943      -0.20127986       0.16852914       0.51332806
Li       4.99077621       4.96147761       5.94378183      -0.20699313       0.20286377      -0.44419428
Li       0.49572789       0.94205755       7.89459243       0.02657317      -0.26687933       0.16938083
Li       0.45012745       0.83908422       1.22791349       0.12243190      -0.17080317      -0.20121386
Li       1.57623777       5.48780569       3.14017111      -0.03634352       0.75631711       0.84877470
Li       1.57503754       5.75761936       5.99008711       0.04952115       0.28895000      -0.65159250
Li      -0.91359073       2.24209372       2.89585947      -0.08187132      -0.04115803       0.70336872
Li      -0.97401032       2.22614021       6.30794055       0.02791941      -0.07726811      -0.74046170
12
Lattice="3.18321 0.0 0.0 0.0 6.26858 0.0 0.0 0.0 11.83724" Properties=species:S:1:pos:R:3:REF_forces:R:3 config_type=buildcell buildcell_config_i=21 RSS_min_vol_per_atom=10.0 buildcell_type=narrow_even gap_rss_group=ALL gap_rss_iter=0 buildcell_symmetry="1 P1 P 1 @ 0.01" vasp_rundir=run_iter_0/run_VASP_nf3pr3n_ REF_energy=-20.42092702 REF_stress="-0.01684893595346614 -0.021326999980151005 -0.015613951973352877 0.0005190305608034498 0.0006877821931078824 -0.0002426291739333312" pbc="T T T"
Li       3.23288142       2.66567934       1.59965523      -0.12318126      -0.21064271      -0.63543962
Li       0.15230299       2.65609044      10.27893993      -0.13566384       0.03372629       0.59623711
Li       3.34113128       5.89053925      10.25540618      -0.11980449      -0.22808215       0.39419629
Li       0.05425600       5.76745401       1.48831340      -0.12037062      -0.00391245      -0.47116815
Li       1.61580123       4.05528890       8.61297280       0.04499947       0.57002383       0.54716226
Li       1.53537625       4.14533381       3.08320015       0.10183742       0.35785063      -0.14885607
Li       1.50080259       0.97109655       3.19834029       0.14937618       0.34771149      -0.32322433
Li       1.56902737       1.11907974       8.64298976       0.17779115       0.04794220      -0.08108365
Li      -0.05443827       5.82485042       4.45351656      -0.05345714      -0.29423456       0.73003283
Li       3.22077980       5.75369429       7.23945470      -0.01618146       0.07644150      -0.48076786
Li      -0.06017066       2.86469598       7.26727436       0.08182006      -0.48811067      -0.88703231
Li       3.07743891       2.76172265       4.44653156       0.01283453      -0.20871341       0.75994350
6
Lattice="3.2415 0.0 0.0 1.5143891847928181 5.943296024680459 0.0 0.7661537480851315 1.6337593497569065 6.297116414278602" Properties=species:S:1:pos:R:3:REF_forces:R:3 config_type=buildcell buildcell_config_i=26 RSS_min_vol_per_atom=10.0 buildcell_type=narrow_even gap_rss_group=ALL gap_rss_iter=0 buildcell_symmetry="1 P1 P 1 @ 0.01" vasp_rundir=run_iter_0/run_VASP_bpwkmlog REF_energy=-10.67920135 REF_stress="0.004630999400237909 0.008673900018002311 -0.03146175306492152 -0.006392197418837783 -0.004507678870257049 0.000572516904872814" pbc="T T T"
Li       3.96235250       6.53620795      -0.06927409      -0.24060584      -0.06306630      -0.11961104
Li       5.03506862       4.79457558       1.67257104       0.15807749      -0.13516224      -0.24124737
Li       1.78893120       4.96945014       5.88296271      -0.10096432       0.00531084       0.12874481
Li       1.60409497       2.84779019       4.05348141      -0.02147422      -0.25421550       0.04371722
Li       3.28103679       5.13312243       3.62678084       0.14548741       0.51504259       0.25393331
Li       3.22820418       2.08522234       2.00429367       0.05947947      -0.06790938      -0.06553693
24
Lattice="6.06237 0.0 0.0 -3.0311849999999985 5.250166427140667 0.0 0.0 0.0 16.79237" Properties=species:S:1:pos:R:3:REF_forces:R:3 config_type=buildcell buildcell_config_i=31 RSS_min_vol_per_atom=10.0 buildcell_type=wide_even gap_rss_group=ALL gap_rss_iter=0 buildcell_symmetry="1 P1 P 1 @ 0.01" vasp_rundir=run_iter_0/run_VASP_3km_y1i2 REF_energy=-39.93337904 REF_stress="-0.0010691181782097818 0.0022787681786150303 -0.015778646824453776 0.0003075269565186755 0.0010934236133874312 0.0028724017004455346" pbc="T T T"
Li       2.02053214       0.58698162      11.95110858      -0.10505008      -0.33486924       0.04898185
Li       2.71837265       3.21953161      11.86292603      -0.27136102       0.45087398       0.15106603
Li       4.71454589       1.48315491      11.83939229       0.05522711      -0.26028041       0.31331718
Li       1.11458028       4.60301661       3.44358175       0.11364498       0.13256205      -0.08688219
Li       0.48931156       1.81589145       3.31766294       0.08619381      -0.09179922       0.40860012
Li      -1.58166836       3.74247188       3.52157946      -0.13710290       0.19083528       0.01677161
Li       0.39536632       1.68684083      10.14098720       0.40622864       0.15961944      -0.47616060
Li      -1.71369090       3.92184918       9.85194751       0.13043523      -0.15402180       0.28796932
Li       1.15050626       4.76825756       9.87932297      -0.13069021       0.02675816       0.32822068
Li       2.58258607       3.36203136       1.56906795      -0.27675590       0.05510258       0.10614072
Li       4.66212761       1.52029789       1.59688760      -0.13371951      -0.18344734       0.00291998
Li       1.72046937       0.57525562       1.47615296       0.40257093      -0.46467686       0.30383550
Li       2.05767718       0.35356896       8.05808135      -0.33090599      -0.00033506       0.01688513
Li       2.50838783       3.28533251       8.20803678      -0.43744310       0.04308084       0.02965643
Li       4.55649765       1.45903424       8.04304776       0.56593480      -0.03009825       0.29626597
Li       0.92240976       4.65456658      16.69279718       0.22264544       0.35084499       0.28804457
Li       0.57684513       1.86237656      16.61949335      -0.00555763      -0.09671076      -0.25496721
Li      -1.57538571       3.69332962      16.64825258      -0.29487816      -0.01412012      -0.00251139
Li       1.59494100       2.10450615       5.90336083      -0.76758634       0.11903470      -0.22650829
Li       3.99624780       2.98563146       6.08483709       0.57416408       0.60558836      -0.35497029
Li       3.52662749       0.26771728       5.87664908       0.27011588      -0.56015819      -0.25726517
Li       1.41972329       3.32004087      14.51909158       0.88561284      -0.14270411      -0.45751834
Li      -1.00318505       2.39801460      14.41963118      -0.52357360      -0.62736848      -0.26865412
Li      -0.60787189       5.00002281      14.53727124      -0.29814930       0.82628947      -0.21323749
12
Lattice="4.32462 0.0 0.0 -1.7360623322159825 5.537437838807837 0.0 -1.0628155366502543 -0.9888950620380987 8.86236597764567" Properties=species:S:1:pos:R:3:REF_forces:R:3 config_type=buildcell buildcell_config_i=38 RSS_min_vol_per_atom=10.0 buildcell_type=wide_even gap_rss_group=ALL gap_rss_iter=0 buildcell_symmetry="1 P1 P 1 @ 0.01" vasp_rundir=run_iter_0/run_VASP_4ymjpth_ REF_energy=-20.87490032 REF_stress="-0.024599133377892317 -0.0107364560665046 -0.026202068139677605 -0.0007489709401706432 0.010619754195080065 0.005816579688540666" pbc="T T T"
Li       2.30501709      -0.21583276       2.26876926       0.11041168      -0.25200158      -0.22429006
Li      -0.57730055       4.72713376       6.63495188      -0.31765401       0.19224803      -0.16547301
Li      -1.48828350       4.06085517       1.31748736      -0.36307277       0.13604620      -0.00756425
Li       3.22620292       0.51808931       7.45135820      -0.04920716      -0.39899595       0.08759353
Li       1.04020858       0.43758641       8.91738442       0.01422230       0.10409822       0.28224452
Li       0.45350103       3.81834523      -0.19608549       0.37146344       0.12224711       0.00866015
Li      -0.71017096       2.16823543       5.67300514      -0.00403667       0.03006443      -0.56337931
Li       2.12253306       2.24582979       3.19345090       0.12137120       0.46127017       0.33099973
Li       4.24780933       1.53429822       1.78352076       0.26462626       0.14505787      -0.24679721
Li      -2.73893567       2.96527295       6.93457649      -0.26765281      -0.09061562       0.24131058
Li       0.48556468       0.45750220       4.22044215      -0.19738911      -0.24743905       0.19602889
Li       0.87423570       4.35852289       4.51848974       0.31691764      -0.20197983       0.06066643
16
Lattice="4.43708 0.0 0.0 -0.18464947825742498 4.564746880231067 0.0 0.0 0.0 10.84013" Properties=species:S:1:pos:R:3:REF_forces:R:3 config_type=buildcell buildcell_config_i=40 RSS_min_vol_per_atom=7.0 buildcell_type=narrow gap_rss_group=ALL gap_rss_iter=0 buildcell_symmetry="1 P1 P 1 @ 0.01" vasp_rundir=run_iter_0/run_VASP_hdg6ybyb REF_energy=-24.15932046 REF_stress="1.1386410968967249 1.1509339234455018 1.1400540054491353 0.008608676060391557 -0.0007402604148647431 -0.004593479504354031" pbc="T T T"
Li       2.72841417       3.49745310       3.47085694      -0.07765298       0.08879496      -0.21043106
Li       2.83104574       3.48786419       7.41062822      -0.46343182      -0.07078886      -0.03661874
Li       0.61352321       2.98105546       8.76574329      -0.74772684      -0.75671943       0.30923600
Li       0.50985793       2.85797022       1.98086629      -0.58320939      -0.20591391      -0.53652023
Cu       0.48195513       4.03458865       4.10143435       0.19297079       2.48719527       0.51871561
Cu       0.40153015       4.12463356       6.59762860       0.77202234      -1.55724364      -0.58427768
Cu      -0.61014494       0.22211846       9.83791318      -0.99480486      -0.27282404      -3.30830191
Cu      -0.54192016       0.37010165       1.00630687      -0.76293930      -0.06494370       3.19617999
Cu       2.27689370       1.22520218       4.16250591       1.34939681       0.12496875       0.40845238
Cu       2.36890177       1.15404605       6.53335535      -0.45968790      -0.14900604       0.39878164
Cu       2.61618167       2.47748576       9.70177097       0.84884815      -0.08244366      -1.17510111
Cu       2.57058124       2.37451243       1.01492495       0.68099237       0.89438284       1.06462030
Cu       4.54833693       1.69517932       6.43378418       0.34496170       1.91598266       1.77099734
Cu       4.54713669       1.96499299       4.29066404      -0.90692548      -2.08734695      -1.44618063
Cu       1.30053673       5.19121327       2.06750181       0.25456029      -0.76007126       0.15517503
Cu       1.24011714       5.17525976       8.73048822       0.55262612       0.49597700      -0.52472692
20
Lattice="4.55752 0.0 0.0 -2.2787599999999992 3.9469280982556554 0.0 0.0 0.0 15.73866" Properties=species:S:1:pos:R:3:REF_forces:R:3 config_type=buildcell buildcell_config_i=43 RSS_min_vol_per_atom=7.0 buildcell_type=narrow gap_rss_group=ALL gap_rss_iter=0 buildcell_symmetry="1 P1 P 1 @ 0.01" vasp_rundir=run_iter_0/run_VASP_ecibma5g REF_energy=-29.40036087 REF_stress="1.1131211920502893 1.130488369388145 1.1457858731725665 -0.009826788105382895 0.003189111327469447 0.0007162386874844104" pbc="T T T"
Li       1.56884460      -0.01382643      10.24940683       0.42071793       0.16786942      -0.62958595
Li       1.67147639       2.60787019      10.16122428      -0.43866441      -0.05764718      -0.65798261
Li       3.95585469       1.39238604      10.13769054      -0.32587381      -0.19820509       0.06526859
Li       2.33301623       1.26930080      16.32827671      -0.25444867      -0.02767519      -0.38148568
Li       0.02419623      -0.19132802      -0.14092161      -0.10947438       0.17698925       0.62418880
Cu       1.18253572       2.04685777       4.29030141      -0.77561968       1.45917311       0.05187418
Cu      -1.12860007       1.65882579       4.40544155       1.69113643       1.09379101       0.32569407
Cu      -0.22354444       3.95241198       4.11640186      -1.80706759      -2.45562771       1.14919844
Cu       0.28801150       1.35936605       2.10207650       2.11802981      -0.58724920       0.13708628
Cu      -1.24477573       2.91615713       2.18800648      -2.50417338       1.08265112       0.43346289
Cu       0.87972509       3.75458922       2.21582614       1.40468344      -0.73875977      -1.01732664
Cu       2.83706515       2.87854964      12.11269035       3.42679300      -2.58773283       0.37299811
Cu       3.24989042      -0.19575743      12.10195611      -3.17580221       2.40274067      -0.95958424
Cu       0.68412514       1.22427042      12.25191154      -0.76269528      -0.09632534      -1.62151333
Cu       1.30208927       2.40542371      13.88050965       2.67477556      -0.76789301       3.30207546
Cu      -0.89833708       1.54543936      14.13407407      -0.95268578      -1.66400576      -0.02909745
Cu      -0.45293960       3.69051486      14.06077025      -0.81604035       2.78731929       0.05151072
Cu       2.85131608       2.57905739       8.15444617       0.19403762       0.31840135      -0.66214827
Cu       3.22909973       0.21402005       8.00935679      -0.60230890      -1.04237884       0.04918763
Cu       0.78953400       1.21241320       8.19083305       0.59468066       0.73456469      -0.60382100
16
Lattice="4.50216 0.0 0.0 2.123968841061358 5.173266617747482 0.0 0.8393381507471966 1.2505654075421988 9.757363729848299" Properties=species:S:1:pos:R:3:REF_forces:R:3 config_type=buildcell buildcell_config_i=44 RSS_min_vol_per_atom=7.0 buildcell_type=narrow gap_rss_group=ALL gap_rss_iter=0 buildcell_symmetry="1 P1 P 1 @ 0.01" vasp_rundir=run_iter_0/run_VASP_tlvhjqyb REF_energy=-23.82497152 REF_stress="1.115380220932007 1.1561063041945494 1.129932834162849 0.011302759174552049 -0.021393300941368976 -0.007834789121896044" pbc="T T T"
Li       5.43866879       1.51859822       6.87397636      -0.07506045       0.23502620      -0.60849023
Li       4.79527433       4.10830283       6.51982271      -0.62650099      -0.03706444       0.12608905
Li       0.53032344       1.75621731       3.19251976      -1.18835473      -0.49482318       0.23821088
Li       2.88796415      -0.33409292       2.44577971      -0.34541767      -0.40976689       0.00266874
Cu       2.17118842       3.15776188       3.62660706      -0.01769582       1.06987744      -1.05378728
Cu       1.15521437       2.05625281       0.96493807       2.66229371       0.63753850       0.57477080
Cu       5.10146665       3.16779224       8.98575483       0.40584522       1.68009894      -3.46802508
Cu       7.10883376       4.38967660       1.22194224       0.48149295       0.00477853       1.39312283
Cu       4.37693668       1.24196364       9.35048797      -1.32686957      -3.27533362      -0.55806745