10
Lattice="5.54521 0.0 0.0 2.7726050000000004 4.802292729319507 0.0 2.7726055961792335 1.600764587310743 5.938337650255959" Properties=species:S:1:pos:R:3:REF_forces:R:3 config_type=buildcell buildcell_config_i=3 RSS_min_vol_per_atom=8.0 buildcell_type=narrow gap_rss_group=ALL gap_rss_iter=0 buildcell_symmetry="1 P1 P 1 @ 0.01" vasp_rundir=run_iter_0/run_VASP_7epe6el9 REF_energy=-16.6858493 REF_stress="0.6530614242813947 0.6703001655421484 0.7103194142551803 -0.006136424157213617 0.0014924143998594041 9.736139447728983e-05" pbc="T T T"
Li       6.94042517       4.12815437      -0.58407530       0.00188856      -0.08823662      -0.28567691
Li       5.83919664       1.54261180      -0.67225785      -0.16658600       0.27851573      -0.39612604
Li       4.21590368       3.97332087      -0.69579159       0.07050536      -0.34158819      -0.18655891
Li       5.59946664       3.15518708       6.28461125       0.12857972       0.17536259       0.40595229
Li       2.79680126       1.40943624       2.92198131      -0.20474772       0.23173840       0.12276071
Cu       7.31941817       3.75852876       2.61707493       1.05527400      -0.31236551      -0.40322563
Cu       5.10927953       1.14595199       2.73221507       0.19373107       1.29972619      -0.26722231
Cu       4.03732429       4.46434449       2.44317538       0.02068032      -0.52872225      -0.79587816
Cu       5.49077211       3.21262097       3.71604887      -0.64278642      -0.14264319       1.62797789
Cu       5.58277993       3.14146469       1.20751794      -0.45653888      -0.57178715       0.17799706
24
Lattice="5.31458 0.0 0.0 0.0 9.31451 0.0 0.0 -4.657254999999998 8.066602283804194" Properties=species:S:1:pos:R:3:REF_forces:R:3 config_type=buildcell buildcell_config_i=5 RSS_min_vol_per_atom=8.0 buildcell_type=narrow gap_rss_group=ALL gap_rss_iter=0 buildcell_symmetry="1 P1 P 1 @ 0.01" vasp_rundir=run_iter_0/run_VASP_20xuedh6 REF_energy=-37.00823029 REF_stress="0.6324103273608324 0.6393238272872445 0.642756415098477 -0.0013905364122012785 0.007469748044397379 0.002612630558739458" pbc="T T T"
Li       4.60732023       7.69583215       1.32194963      -0.53137911       0.01120212      -0.40553000
Li       2.93842531       4.34751535       6.02475530      -0.60183483       0.22772020       0.02766416
Li       1.17251712       1.96792060       0.71430427      -0.67374975      -0.10984856       0.21697840
Li       3.13439365       3.54778859       0.28544192       0.17344567       0.59676786       0.16515511
Li       1.33280739       7.03858346       2.77410897       0.55635347       0.63398369       1.22069447
Li       4.79543539       3.04644004       4.81941137       0.40438797      -0.34621721      -0.11959065
Li       1.68443047       8.10252222       0.63376588       0.45562373      -0.04803779      -0.54543993
Li       5.29570876       4.77745855       6.75322304       0.61689016       0.35452577      -0.15538134
Li       3.49232109       0.96840034       0.56860327       0.49271044      -0.09800768       0.20715898
Li       1.05787775       1.75413302       6.57862580      -0.02420524      -0.11091173       0.01866902
Li       4.50319080      -1.78713411       6.33249557      -0.23646264      -0.45241632      -0.23963493
Li       2.68606335       0.24041953       3.06947974       0.20721955      -0.15571659       0.46548863
Cu       4.27388326      -2.09868482       3.58777263       0.35013988       3.94157526      -0.13598512
Cu       2.50115600       2.46033403       4.57564154       0.03770778      -1.49211357       1.41249914
Cu       0.69837856      -0.51387994       7.70625642      -0.30211006       0.45208097       2.37620555
Cu       4.82260611       0.10079474       4.64940584       0.78882229       0.02378651      -1.56998489
Cu       3.15742534       0.47256757       5.95434716      -1.41212528       0.70770773      -0.36126830
Cu       1.31302879      -0.86342241       5.72873981       0.49760083      -0.70355676      -1.79743101
Cu       2.63891779      -2.57376756       4.96227763      -0.65728883      -1.28686879       0.71768786
Cu       0.73337011       1.65369181       3.33145859      -0.52471417      -0.16362626      -0.92514903
Cu       4.25942690       1.02776282       7.74246841       0.40984224       1.18131330       1.35391750
Cu       2.81221788       3.90142654       2.95296713       0.22234800      -0.08831406      -0.62268200
Cu       1.15311051       5.06488559       1.93585973      -1.12990398      -0.44765999      -1.42544786
Cu       4.63885306       5.22319830       3.50336668       0.88068190      -2.62736812       0.12140623
12
Lattice="3.80727 0.0 0.0 -1.5218528029225415 6.764420617927068 0.0 0.0 0.0 7.19799" Properties=species:S:1:pos:R:3:REF_forces:R:3 config_type=buildcell buildcell_config_i=7 RSS_min_vol_per_atom=8.0 buildcell_type=narrow gap_rss_group=ALL gap_rss_iter=0 buildcell_symmetry="1 P1 P 1 @ 0.01" vasp_rundir=run_iter_0/run_VASP_ylzb80jk REF_energy=-19.67220671 REF_stress="0.7136309999075477 0.7387285656053434 0.7138255315877344 0.0007530518572899651 -0.011640283073590085 -0.008608099569642653" pbc="T T T"
Li       1.10434469       1.10800605       2.13619058      -0.22757843       0.52733883      -0.88325902
Li       1.38304691       5.61917280       5.64700303      -0.23869013       0.34463504      -0.39225516
Li       1.70868154       2.71575839       6.96743983      -1.47503801      -0.01773713      -0.00197008
Li       0.78891294       4.07906393       3.36881929       0.22041690      -0.11710526      -0.17954332
Li       3.15865904       4.81266160       0.10508287       0.28393459       0.57246558       0.45820776
Li      -0.90527437       1.65914788       3.90799438       0.03601613       0.26517772      -0.33730838
Cu       1.14003541       6.38101114       0.99073867      -0.66762819       0.71027806      -0.74729767
Cu       1.03200175       0.24893193       4.30069397       0.07373505      -0.66097492       1.17797473
Cu      -0.67437631       2.94797708       1.56752726       0.16362384      -0.29315363       0.45709961
Cu       2.94292504       3.76747192       5.25245224       0.35914063      -0.00006685      -0.83135576
Cu      -0.41303566       1.38861486       6.26130754       0.39573920      -0.21117108       0.43216471
Cu       2.53251110       5.64328806       2.54157790       1.07632840      -1.11968636       0.84754258
18
Lattice="3.60772 0.0 0.0 -1.242452663991912 6.830784461344055 0.0 -0.06182776728012958 -1.1752311698381104 11.384433364670992" Properties=species:S:1:pos:R:3:REF_forces:R:3 config_type=buildcell buildcell_config_i=9 RSS_min_vol_per_atom=8.0 buildcell_type=narrow gap_rss_group=ALL gap_rss_iter=0 buildcell_symmetry="1 P1 P 1 @ 0.01" vasp_rundir=run_iter_0/run_VASP_wm9o04ww REF_energy=-30.00305019 REF_stress="0.7024571343439242 0.7095701308650627 0.7030010598005102 0.0072606650159402954 0.008698670845066422 0.003976422909491004" pbc="T T T"
Li       1.72650569       4.58367401      11.63852535      -0.04556722       0.41532826      -0.47143952
Li       2.07598890       0.79002696       6.37106997      -0.29661900      -0.05976692      -0.01663335
Li       0.09132337       2.38892583       1.98486312      -0.55222247      -0.08249918      -0.31074447
Li       0.04958862       4.63382949       3.63702551      -0.09953715       0.25105904       0.90508718
Li       1.49402551       2.19926899       4.07809247      -0.10861413       0.45582662       0.47528550
Li      -0.11421403       6.65040293       1.98242289       0.12018124       0.06205502      -0.28500596
Li       0.57484040       1.80217608       8.65199800       0.12325059       0.27471011      -0.45772481
Li      -0.15097732       0.07563472      10.13659723      -0.04639053      -0.84066878       0.42811129
Li      -0.18282112       2.67981232      10.89249446      -0.31188276       0.15958754       0.46471762
Cu      -0.02269271       2.64737138       6.20367356      -0.03949154       0.32615576      -0.04669789
Cu       1.73783121       4.28937302       2.04868276       0.26705471      -0.27937082      -0.40530601
Cu       2.88520411       0.51288895       3.48594084       0.64444343      -0.76340310       0.47690530
Cu       0.62926323       4.92544113       6.48899285       0.77460121      -0.90833332       0.97598322
Cu       1.69514231      -0.26785089       8.61474060       0.17406644      -0.72791962      -0.20347189
Cu       1.66389292       1.04638968      11.53857261       0.05550239      -0.11899256       0.12665383
Cu       2.40208381       3.58074316       8.15542647       0.32938470      -0.41576561      -1.42354543
Cu       0.14182326      -0.85357875       5.52231459      -0.76755424       0.84263673      -0.81640247
Cu       0.63291587       4.24517705       9.36378317      -0.22060567       1.40936083       0.58422785
22
Lattice="7.30467 0.0 0.0 0.0 7.30467 0.0 0.0 0.0 8.19003" Properties=species:S:1:pos:R:3:REF_forces:R:3 config_type=buildcell buildcell_config_i=11 RSS_min_vol_per_atom=8.0 buildcell_type=wide gap_rss_group=ALL gap_rss_iter=0 buildcell_symmetry="1 P1 P 1 @ 0.01" vasp_rundir=run_iter_0/run_VASP_k1bjz1ru REF_energy=-33.26396502 REF_stress="0.5520687757872443 0.552631670625611 0.5561196576099733 -0.0001527794169645145 -0.000709480524957614 0.0023280140850748332" pbc="T T T"
Li       0.57224751       4.88607316       1.41950792      -0.25241425       0.54043338       0.18189996
Li       6.93439689       2.38135507       1.33132537      -0.10213146      -0.38156006       0.00080446
Li       2.56269169       0.59931956       1.30779163      -0.94501915      -0.78327824      -0.01786310
Li       4.95415559       6.73575214       1.30816610       0.51673349       0.22007154       0.38207028
Li       6.80629014       2.21344239       6.66279915       0.00543574       0.19664630      -0.02094182
Li       0.46634734       4.79861648       6.86671566      -0.14776677       0.27181316      -0.09058628
Li       4.80909718       6.64086354       6.98185581       0.61837819       1.06731049      -0.38126542
Li       2.38219278       0.52932891       6.69281611      -0.34992200      -0.64244411      -0.14055483
Li       3.59789673       0.01109226       3.97991564       0.08948152       0.05733133       0.07405344
Li       0.03756980       3.59227113       4.06584563      -0.01379504      -0.05532520      -0.03016429
Li       3.59216434       3.83756282       4.09366528       0.03496894      -0.09061702       0.01291040
Cu       5.04942087       4.37530620       6.90691552       1.76326578      -1.07848871      -0.12745225
Cu       2.17036440       2.81565128       6.89618128      -1.38255486       1.13727660       0.08336549
Cu       3.03130441       5.22903862       7.04613671      -1.93892727       0.07239083      -1.50849243
Cu       4.28148688       2.11936767       6.88114768       1.30439617      -0.66127799       0.11244425
Cu       2.07749362       2.96555441       1.26674234      -0.06629573       0.60549769       0.02678168
Cu       5.18955379       4.11674770       1.19343852       0.74420326       1.12933509      -0.21388101
Cu       4.25454348       2.08178584       1.22219775       0.47845584      -1.02791657      -0.04612596
Cu       3.11471824       5.24831997       1.07710837      -0.54170163      -0.07389699       1.62089195
Cu      -0.03092124       0.03312634       1.89259123       0.26491759      -0.05339052      -0.40889923
Cu      -0.04791742      -0.01856590       6.28435978       0.02721791      -0.67141474       2.73505179
Cu       7.18504934       0.08125258       4.23063900      -0.10692629       0.22150373      -2.24404710
12
Lattice="4.23288 0.0 0.0 -1.0460007942483556 6.524130427952205 0.0 0.0 0.0 8.15233" Properties=species:S:1:pos:R:3:REF_forces:R:3 config_type=buildcell buildcell_config_i=16 RSS_min_vol_per_atom=8.0 buildcell_type=wide gap_rss_group=ALL gap_rss_iter=0 buildcell_symmetry="1 P1 P 1 @ 0.01" vasp_rundir=run_iter_0/run_VASP_sl6fdk8t REF_energy=-18.14162007 REF_stress="0.5815712999823597 0.5913212959485972 0.589009684892788 -0.010150042697464882 0.00297837375608271 0.004895866178650957" pbc="T T T"
Li       2.61840789       2.48002308       6.77529244      -0.16962661       0.13439129       0.00919895
Li       0.77044571       4.00686558       2.61094489      -0.21738377      -0.50040283       0.87807505
Li       0.60830558       3.33992236       5.17075002      -0.42344996      -0.04250037       0.10705778
Li       2.79075091       3.21460978       1.09495948      -0.34208158       0.16079559       0.10453802
Li       2.75880462       5.51005280       2.59673814       0.54612063       0.81036907       0.08170259
Li       0.39604206       0.72146649       6.87681966      -0.01627166      -0.32228992       0.06230561
Cu       1.18150409       5.29405727       0.81916960      -0.27476382      -0.14286810      -1.24827869
Cu       1.89199508       1.09559561       4.60629491       0.34997233      -0.04577122       1.07611862
Cu       1.46828830       6.06655134       6.40938317      -0.76411455       0.62377921       0.43961956
Cu       1.70172244       0.40860748       2.41914815      -0.21128582       0.48270620      -0.83008396
Cu       0.49459623       2.02683391       0.97240533       0.63608183      -0.56034213      -0.02687067
Cu       2.52634122       4.76477883       4.92783569       0.88680298      -0.59786680      -0.65338286
24
Lattice="5.43691 0.0 0.0 0.0 8.86289 0.0 0.0 -4.431444999999998 7.675487890947065" Properties=species:S:1:pos:R:3:REF_forces:R:3 config_type=buildcell buildcell_config_i=17 RSS_min_vol_per_atom=8.0 buildcell_type=wide gap_rss_group=ALL gap_rss_iter=0 buildcell_symmetry="1 P1 P 1 @ 0.01" vasp_rundir=run_iter_0/run_VASP_2tzuef5o REF_energy=-38.54853478 REF_stress="0.7612679985437472 0.6665856883785581 0.6709779838899519 -0.005200208604866444 0.0017324169782318172 0.0008835518454221099" pbc="T T T"
Li       4.13657111       1.65467731       5.17608808       0.09387572      -0.23605213      -0.38291422
Li       4.23920268      -0.86257991       3.65144795      -0.09241890       0.18908535      -0.14368428
Li       4.24482098      -0.75259570       6.51784746      -0.27155867       0.03299221       0.00051617
Li       1.40426631       1.62216197       5.06474625       0.06796961      -0.16583536       0.09436901
Li       1.37420653      -1.03049260       3.50236987       0.18493904       0.88928326       1.00759520
Li       1.29378155      -0.93062228       6.59621964       0.37623407      -0.02741642       0.00067511
Li       1.25919539       1.41893119       2.56003992       0.18514050       0.53917004      -0.35407007
Li       1.32742017      -3.11464315       4.97513601      -0.13972521      -0.05788024       1.23088527
Li       1.29555953       1.57232534       7.70479132      -0.14352037      -0.26575343       0.54975294
Li       4.12448200       1.50009769       2.38430566      -0.23960853       0.20972556      -0.01767812
Li       4.02674154      -2.93616815       5.11626110      -0.04167271      -0.36707439      -0.04714301
Li       3.98114111       1.64348757       7.69780632       0.01684928      -0.53724092       0.04228648
Cu       3.88934406       8.06192129       1.04991651       0.22992128       0.53450474       1.28962933
Cu       3.88814382       1.40062617      -0.05028389       0.85539965       0.17328725       0.04013015
Cu       3.85689287       3.67955682       6.41232129       0.56980574       0.54344192      -0.96293414
Cu       1.49646788       8.21182442       1.28844734      -0.14996619      -1.32778470       0.92914775
Cu       1.60281413       1.15047549      -0.03501232      -0.88479468       2.76588014       0.15922319
Cu       1.52994407       3.64197499       6.62134112      -0.66246554      -1.04958592      -2.04161728
Cu       3.99029379       3.91780272       1.28930593       0.30089256      -1.90201463      -0.68666110
Cu       3.85627260       3.74148404       3.77416310       0.76724701      -0.38363168      -0.02762458
Cu       3.83927641       5.74273669       2.51501812       0.24525572       1.81134056       0.66355836
Cu       1.43009550       3.90592729       1.50885168      -0.23584264      -1.26754625      -2.20473047
Cu       1.54251515       3.80871099       3.71277219      -0.68922385      -1.93847271       2.39058420
Cu       1.48520419       5.79744215       2.77945528      -0.34273290       1.83757776      -1.52929592
6
Lattice="4.56784 0.0 0.0 -2.2839199999999993 3.9558654804227107 0.0 0.0 0.0 6.9068" Properties=species:S:1:pos:R:3:REF_forces:R:3 config_type=buildcell buildcell_config_i=20 RSS_min_vol_per_atom=10.0 buildcell_type=narrow_even gap_rss_group=ALL gap_rss_iter=0 buildcell_symmetry="1 P1 P 1 @ 0.01" vasp_rundir=run_iter_0/run_VASP_3hgi_rc8 REF_energy=-9.35571339 REF_stress="-0.01711901503487474 -0.006495616659793418 -0.02761169131772167 -0.0018331737911226424 -0.00211751812250636 -0.0031434727448995123" pbc="T T T"
Li       2.83977523       1.95042297       3.45097329      -0.10106278       0.31486766       0.00478883
Li       2.74226096       0.53402466       5.66505717      -0.01173470      -0.58311082       0.18157803
Li       1.62961949       1.51091956       1.03699056      -0.28026436      -0.38976153      -0.13780562
Li      -0.75952251       2.70735122       0.45445528      -0.56123881       0.09667519      -0.20154804
Li       0.53193357       3.09244382       2.63080290       0.11596392       0.81675319       0.28514866
Li       0.24981242       1.77298301       5.13698586       0.83833673      -0.25542370      -0.13216186
10
Lattice="4.91115 0.0 0.0 0.0 5.04332 0.0 0.0 -1.9082505002129857 8.005026688108972" Properties=species:S:1:pos:R:3:REF_forces:R:3 config_type=buildcell buildcell_config_i=21 RSS_min_vol_per_atom=10.0 buildcell_type=narrow_even gap_rss_group=ALL gap_rss_iter=0 buildcell_symmetry="1 P1 P 1 @ 0.01" vasp_rundir=run_iter_0/run_VASP_rb1eklst REF_energy=-16.61200804 REF_stress="-0.00832382540530453 -0.026595513669849705 -0.018266583552683933 -0.011452507421334107 0.0005484836119760712 -0.0027899419152477996" pbc="T T T"
Li       1.10549549       2.03208043       1.02406243      -0.13183666       0.12989472      -0.39071812
Li       3.66370206       1.06574731       7.02231941      -0.21955834      -0.19045836       0.22708855
Li       0.51698086      -0.46125871       4.98795579       0.02698587      -0.34932494      -0.21526410
Li       2.86889058       3.62672992       2.92355049       0.12610998      -0.27760129       0.13569787
Li       2.92428776       0.71292224       4.24991323      -0.04673322       0.32856351       0.69455811
Li       5.29943778       2.12953612       3.61404641       0.09957663       0.03983553      -0.08051718
Li       3.42224632       1.18744469       1.97399480       0.34340194      -0.03111151      -0.66418728
Li       1.03489610       1.81314726       6.03512195       0.45148486       0.26868732       0.33659932
Li       4.34265134       0.48685776      -0.69199441      -0.22019963      -0.02926255      -0.07131119
Li       1.97908442       2.59924013       8.55275237      -0.42923142       0.11077757       0.02805402
20
Lattice="7.94509 0.0 0.0 3.972545000000001 6.880649775353706 0.0 3.9725444570571757 2.293549611649716 7.261575063249415" Properties=species:S:1:pos:R:3:REF_forces:R:3 config_type=buildcell buildcell_config_i=32 RSS_min_vol_per_atom=10.0 buildcell_type=wide_even gap_rss_group=ALL gap_rss_iter=0 buildcell_symmetry="1 P1 P 1 @ 0.01" vasp_rundir=run_iter_0/run_VASP_qaqqnpni REF_energy=-33.48324693 REF_stress="-0.009683265289599213 -0.01225061454847563 -0.03129405826366681 -0.0009186066323106843 -8.215320226947104e-05 0.00024270599442765257" pbc="T T T"
Li       9.22954604       5.99888996       4.66159058      -0.37186383      -0.25545818      -0.04846603
Li       6.24537985       4.92023110       4.57340803       0.15497477      -0.15285021       0.44605028
Li       8.72023876       2.88167960       4.54987429      -0.38961273       0.38273602       0.67970260
Li       6.76456083       3.11514123       2.61818036       0.27209021       0.43952812      -0.41649870
Li       9.82129882       4.03922493       2.49226155      -0.66406669       0.22161903      -0.11535904
Li       7.27163322       6.26798014       2.69617807       0.45485535      -0.32955524      -0.55876000
Li       9.43131905       1.41072875       2.54919713      -0.49532795      -0.34326759      -0.48599533
Li       9.76250525       7.47717234       2.26015744       0.41837143      -0.60026315       0.57887432
Li       4.47362684       4.75001285       2.28753290       0.37395426       0.75633297       0.26488690
Li       6.40562780       7.56217640       4.82977343       0.54294006       0.32754547       0.35057618
Li       6.04492591       1.88900768       4.85759308      -0.44562781       0.15059373      -0.08541828
Li      11.25634325       4.51753328       4.73685844       0.27864478      -0.56066552       0.06570830
Li       5.08621599       4.54122473       6.95220215      -0.06582281      -0.09177234       0.28412595
Li       9.27467186       2.09195492       7.10215759       0.09049845      -0.16621244      -0.06242708
Li       9.50338822       6.97588825       6.93716856      -0.29352958      -0.04624218       0.48137400
Li      10.75286541       4.39094376       0.28226653      -0.06920110       0.23276718      -0.76422224
Li       6.66955555       6.97978711       0.20896270       0.00254825       0.20661604       0.01140088
Li       6.33671818       2.10050856       0.23772193       0.42056712       0.28434730      -0.60612037
Li       4.07564524       2.38667811       1.31793766      -0.41790580      -0.38909020       0.22278282
Li      11.88671293       6.91377564       5.95727017       0.20351364      -0.06670881      -0.24221517
10
Lattice="3.46904 0.0 0.0 0.0 6.56472 0.0 0.0 -3.2823587927818165 8.068261305873026" Properties=species:S:1:pos:R:3:REF_forces:R:3 config_type=buildcell buildcell_config_i=34 RSS_min_vol_per_atom=10.0 buildcell_type=wide_even gap_rss_group=ALL gap_rss_iter=0 buildcell_symmetry="1 P1 P 1 @ 0.01" vasp_rundir=run_iter_0/run_VASP_6td06lc3 REF_energy=-17.34367137 REF_stress="-0.02216986414535503 -0.017900240664902357 -0.025412985679237794 0.00024561784568015086 0.0027133008518307796 -0.0011302334315025852" pbc="T T T"
Li       1.84827118       2.34085443       5.44410054      -0.11042179      -0.16764790      -0.70298757
Li       1.82274323      -0.95109488       2.66551592      -0.27547754      -0.29674668       0.48932427
Li       1.95652104       2.43142393       2.64198218      -0.35202382      -0.23884765       0.68677323
Li       1.72469624      -0.97402091       5.33275871      -0.04770655      -0.15579083      -0.56666826
Li       3.42944509       0.45688820       6.54729116       0.13764118       0.39277451       0.16966066
Li       0.00756238       3.82929231       1.37990310       0.29604780       0.38806605      -0.26941354
Li       3.31444646       0.50698506       1.49504324       0.58082686       0.36308017      -0.26763335
Li       0.04121351      -2.62739095       6.57730812      -0.01482818       0.11014639       0.13366650
Li       1.68008173       2.29579853       7.95316195      -0.02596480      -0.23982895       0.27783954
Li       1.77208980      -1.05771760       8.03909193      -0.18809315      -0.15520513       0.04943853
8
Lattice="3.85356 0.0 0.0 -1.302043724217407 6.439728856235025 0.0 -1.638671413696181 -1.2294615953560992 7.937484613627884" Properties=species:S:1:pos:R:3:REF_forces:R:3 config_type=buildcell buildcell_config_i=38 RSS_min_vol_per_atom=10.0 buildcell_type=wide_even gap_rss_group=ALL gap_rss_iter=0 buildcell_symmetry="1 P1 P 1 @ 0.01" vasp_rundir=run_iter_0/run_VASP_tp73eibg REF_energy=-13.03666652 REF_stress="0.005482771977794672 0.005027667483986795 -0.002242349291182467 -0.0001375313415133813 0.0008287934693098725 0.0009173453356635075" pbc="T T T"
Li       1.45903139       0.66886840       6.74439234       0.15593359      -0.09374579       0.07264719
Li       2.02526669       5.85314555       2.00332140      -0.14738555       0.24730577      -0.42792460
Li       0.46865470       3.35407951       7.44717548      -0.38333273      -0.57334297      -0.23225807
Li       0.54482057       2.76102919       3.12086200      -0.10303697       0.07678734       0.22409239
Li      -1.59186441       4.97396708       7.20690035       0.10433809       0.56844088      -0.10400031
Li       2.36110081       2.39199726       1.33371990      -0.00990396      -0.18246172      -0.06641586
Li       2.32655244       1.10794120       4.38610717       0.55648203       0.26001508      -0.04665575
Li      -0.15906941       5.32101894       3.80733579      -0.17309451      -0.30299858       0.58051501
14
Lattice="6.63369 0.0 0.0 -3.3168449999999985 5.744944060830793 0.0 0.0 0.0 8.94546" Properties=species:S:1:pos:R:3:REF_forces:R:3 config_type=buildcell buildcell_config_i=39 RSS_min_vol_per_atom=10.0 buildcell_type=wide_even gap_rss_group=ALL gap_rss_iter=0 buildcell_symmetry="1 P1 P 1 @ 0.01" vasp_rundir=run_iter_0/run_VASP_05b0nj9t REF_energy=-23.57906652 REF_stress="-0.000756961569813964 -0.0001110782217700427 0.0003390164623228536 0.00010421835385203995 0.0003963034797517875 0.0004893776253010719" pbc="T T T"
Li       2.21871723       4.14588132       3.41204548      -0.13046004      -0.29266351      -0.08263170
Li      -1.21778751       5.52012362       3.32386293       0.24387226       0.07533442       0.08747098
Li      -0.64103404       1.86338488       3.30032919      -0.33045563       0.27131317       0.06355894
Li       0.85321133       1.74029964       5.55161039       0.20926617       0.23546292      -0.01395266
Li      -2.14484959       3.96837973       5.42569159       0.07680333      -0.25742068      -0.01628678
Li       1.31386174       5.44225585       5.62960810      -0.35029823       0.07191964      -0.11744504
Li       2.35432332       3.06863533       7.92905604      -0.46541674       0.50107570      -0.37460799
Li       2.60872427       0.51936097       7.64001634      -0.01474712      -0.64778030      -0.09247915
Li       4.81966910       2.03356247       7.66739180       0.57013969       0.23062802       0.00485898
Li       1.79715243       1.96240635       1.13379947      -0.53491673       0.34022245       0.35372175
Li       4.12839361       3.39509352       1.16161912       0.59582409      -0.03967624       0.03402706
Li       3.89661701       0.59486264       1.04088448       0.30755566      -0.57111239       0.13380574
Li       0.02088636      -0.19596701       7.32817988      -0.00543079       0.08012294       0.58773939
Li       6.65337612       0.07384666       1.50159834      -0.17173593       0.00257386      -0.56777953
16
Lattice="4.67686 0.0 0.0 -2.3384274944452943 4.789673961150415 0.0 0.0 -2.6330519640132106 10.292603569476782" Properties=species:S:1:pos:R:3:REF_forces:R:3 config_type=buildcell buildcell_config_i=41 RSS_min_vol_per_atom=7.0 buildcell_type=narrow gap_rss_group=ALL gap_rss_iter=0 buildcell_symmetry="1 P1 P 1 @ 0.01" vasp_rundir=run_iter_0/run_VASP_fgpcrz36 REF_energy=-25.02748976 REF_stress="1.0813226975468797 1.1262736292263342 1.0850022614560424 0.0010969018441440487 2.333805119521065e-05 -0.008563093863615064" pbc="T T T"
Li      -0.58278953       3.55559560      -0.25416497      -0.18989161       0.09089726      -0.03016069
Li       0.78476758       2.22948071       4.80395427      -0.18523181       0.04787221      -0.18347342
Li       2.03912078      -0.68951175       2.28989660      -0.21321426      -0.56086393      -0.10248021
Li       2.84991586      -2.12912298       7.43657285      -0.25135755      -0.07474762      -0.04588060
Cu       0.88023694       1.32883849       2.27441827      -0.80158788       0.98834412       0.04400025
Cu       3.76459278       0.10235742       7.62463657      -0.53486765       1.41628168      -0.12838063
Cu       1.47897120       0.34189146       7.35947839       0.49370476       1.77337079      -2.43948716
Cu       3.08451120       1.80640063       1.92413691       0.77005070       0.35646615       1.45290281
Cu       2.91669994       2.81205131       4.01763520       0.33936188       0.32767992       0.79000145
Cu       1.74329562       1.42436920       9.24986697       0.26033273       0.02986537       0.96898044
Cu       0.14953197       0.01561681       5.47544859       0.34564843      -0.74278913      -0.22673390
Cu      -0.31547243      -1.40388250      10.50101573       0.95312293      -0.83131637       0.49258029
Cu       3.98661979      -0.07027590       3.25716154       0.04127808       0.00585277       0.51090962
Cu       0.73081420      -1.11698821       8.55341876      -0.81930558      -2.75514333      -0.26423085
Cu       2.06358785       1.21441400      -0.06211996       0.31609687      -0.12887113       0.24214576
Cu       2.52972376      -0.11806549       5.33774625      -0.52414004       0.05710125      -1.08069316
24
Lattice="5.0463 0.0 0.0 0.0 6.90056 0.0 0.0 -3.311132871941129 9.902359675489015" Properties=species:S:1:pos:R:3:REF_forces:R:3 config_type=buildcell buildcell_config_i=42 RSS_min_vol_per_atom=7.0 buildcell_type=narrow gap_rss_group=ALL gap_rss_iter=0 buildcell_symmetry="1 P1 P 1 @ 0.01" vasp_rundir=run_iter_0/run_VASP_torkidxy REF_energy=-34.78027034 REF_stress="1.0931185022444687 1.0800541203852774 1.1131977976120024 0.010524180406265482 0.004320492984439884 -0.00683470631629379" pbc="T T T"
Li       0.70436072       5.01658099       3.67562173       0.23422080       0.57806654       0.05854709
Li       0.80699229      -1.46439563       6.26809310       0.13146744      -0.46953537      -0.40140013
Li       4.38178338       4.23548867       1.32260634      -0.20542542      -0.11677609      -0.25186083
Li       4.27811810      -0.61565984       8.48623292      -0.14875768       0.41901439       0.36633623
Li       2.12969476       5.75628451       1.28127958      -0.60348398       0.68263961       0.18543746