20
Lattice="5.33854 0.0 0.0 -2.6692682141963657 6.290465225846253 0.0 0.0 -1.8677262901368215 9.82041807193725" Properties=species:S:1:pos:R:3:REF_forces:R:3 config_type=buildcell buildcell_config_i=4 RSS_min_vol_per_atom=8.0 buildcell_type=narrow gap_rss_group=ALL gap_rss_iter=0 buildcell_symmetry="1 P1 P 1 @ 0.01" _ConfigSet_loc=" / 0 / 0" vasp_rundir=run_iter_0/run_VASP_ugiy1wtx REF_energy=-32.99820103 REF_stress="0.6795781539842577 0.680631518768196 0.6586738781040639 0.00244070857059906 3.517570988637909e-05 -0.005836860929433929" pbc="T T T"
Li       2.27738291       1.33746522       0.53610866      -0.00407175       0.58590687       0.01821664
Li       3.26313231       0.39401317       5.35813514      -0.64009364       0.44343434       0.22872490
Li      -1.64355300       4.77626677       0.47094507      -0.32927178       0.10156512       0.14108307
Li       1.85573301       3.71931838       5.38152857       0.05775334       0.46994667       0.12330270
Li       0.65238086       2.06729094       7.16406464       0.28174528       0.28224988       0.12236599
Li      -0.68441132       3.09119900       2.45777212       0.03776442       0.30587437      -0.33156414
Li       1.33222925       3.91452252       9.33473658       0.24140911      -0.03807325      -0.74918821
Li      -1.44560599       4.99636886       4.13548785       0.22726556       0.22255787      -0.21075551
Li      -0.13896150       1.94547423       4.63749786      -0.04371512      -0.01982352       0.39970197
Li       0.12209464       0.94045496       9.63363688      -0.00707459      -0.14675111      -0.02572459
Cu       0.27225305       5.65193719       1.56911582      -0.01052449      -0.39386906       0.87081560
Cu      -0.43819153       4.61510072       6.35859022       0.76558930       0.19371607      -0.60297357
Cu      -1.50136110       4.24663734       8.31411089      -0.07539280       2.91402079       2.98227071
Cu       1.54193702       5.45031416       3.55385728      -0.17038420       0.22436283      -0.14370792
Cu       4.69254403       0.04803769       7.17204781       0.06386859      -0.57291892       0.38340409
Cu       0.56244756       0.96594733       2.51540320       0.27262602      -0.70200564      -0.46451131
Cu       2.71909603       2.13419092       3.62955585      -0.39171907      -0.14883492      -0.49439490
Cu       2.61529927       1.30893959       8.56852412       0.16721194      -0.57894901       0.28581410
Cu       1.88758363       3.75201929       1.88171054      -0.13880863      -0.26554827       0.06074172
Cu       3.52313791       2.75815448       6.97339584      -0.30417748      -2.87686109      -2.59362133
24
Lattice="4.50638 0.0 0.0 -1.156537341779197 7.587886968548642 0.0 0.0 0.0 11.50809" Properties=species:S:1:pos:R:3:REF_forces:R:3 config_type=buildcell buildcell_config_i=5 RSS_min_vol_per_atom=8.0 buildcell_type=narrow gap_rss_group=ALL gap_rss_iter=0 buildcell_symmetry="1 P1 P 1 @ 0.01" _ConfigSet_loc=" / 0 / 1" vasp_rundir=run_iter_0/run_VASP_nic9w__r REF_energy=-37.46299134 REF_stress="0.6142875062604334 0.6497462778106218 0.6528166156910633 0.007596186788646967 -0.0009432454639398019 0.01058335380123904" pbc="T T T"
Li       1.26258479       3.25323695       4.54029843       0.33074764       0.02639242      -0.48065165
Li       0.61431095       0.50346477       4.45211588      -0.92959930       0.38743691      -0.32528075
Li       2.29485057       4.39756706       6.98561299      -0.79594348       0.05354860       0.49252075
Li       2.94209070       7.01466509       6.98598745       0.24433304       0.04392983       0.13492424
Li       3.39497372       3.03189634       2.63450399       0.35920137       0.67929903       1.35965395
Li       2.75429508       0.46943601       2.83842051       0.11108036       0.06223165      -0.15909764
Li      -0.11173724       4.22343224       8.84765910      -0.00606904      -0.02544666      -0.51092851
Li       0.51674119       7.02392066       8.55861941       0.46815021      -0.29294014       0.08233643
Li      -0.34356580       2.65191746       6.51490348       0.09221882      -0.33124043       0.06784514
Li       2.00161866       1.09305441       6.60083346       0.05240687       0.40949631       0.02627726
Li       3.57879953       5.13228959       4.87673744       0.16340189      -0.04225240      -0.39944431
Li       1.28002270       6.51702318       4.75600280       0.34066795      -0.61199799       0.34536930
Cu       0.07418261       0.64526028      10.02211335      -0.12582960       1.23277123      -0.46760972
Cu       1.64131120       3.02656285      10.17206878      -0.62232625      -0.25197651      -0.56184364
Cu       3.28498158       6.71654930       1.20530585       1.35064881       1.62245109       0.95936504
Cu       1.65623316       4.58910690       1.45887027       0.31844753      -0.12294814       0.72815852
Cu       2.33190063       0.63663791      10.72700993       0.04974712       2.77069022      -2.01610834
Cu      -0.66112570       2.91330936      10.75576916       0.31903710       0.50932683      -0.93569268
Cu       1.15540381       6.86807305       0.72956672      -2.26394297      -0.70532754       3.74118031
Cu       3.94153889       4.64001176       0.91104298       0.15523684      -1.53640584      -0.55980727
Cu       3.58597216       5.92676663      10.37098206      -1.16433817      -0.04444168       0.07009450
Cu       1.27125374       5.51775051      10.61723956       1.37309935      -2.27699681      -1.76416448
Cu      -0.29124794       1.74290773       1.06263805      -0.27737530      -1.70995185       0.55970312
Cu       1.89445628       2.18752860       1.18027810       0.45699919       0.15435186      -0.38679959
6
Lattice="4.34639 0.0 0.0 0.0 4.95653 0.0 0.0 -2.478264999999999 4.292480894619684" Properties=species:S:1:pos:R:3:REF_forces:R:3 config_type=buildcell buildcell_config_i=7 RSS_min_vol_per_atom=8.0 buildcell_type=narrow gap_rss_group=ALL gap_rss_iter=0 buildcell_symmetry="1 P1 P 1 @ 0.01" _ConfigSet_loc=" / 0 / 2" vasp_rundir=run_iter_0/run_VASP_7qmq0thp REF_energy=-9.99347734 REF_stress="0.6795760362277283 0.6921834553585317 0.7086275649391875 -0.011743687266267218 0.006193610230715458 0.002188498711365044" pbc="T T T"
Li       1.54642600       1.22269447       3.92704100       0.05880403      -0.41798662       0.27211469
Li       4.54665062       0.22488501       1.26707261      -0.69465111       0.37474781       0.18843180
Li       3.10347239      -1.40807778       3.38525590      -0.58467288      -0.74347835      -0.94316237
Cu       0.82693462       2.99143889       2.24573931      -0.51768531       0.66623733       0.14446373
Cu       3.69446788       2.75324732       0.34303775       0.59601624       0.68135220       0.82042252
Cu       2.16524638       1.35115589       1.51606381       1.14218902      -0.56087237      -0.48227037
14
Lattice="6.15094 0.0 0.0 -3.075469999999999 5.326870297153856 0.0 0.0 0.0 6.67538" Properties=species:S:1:pos:R:3:REF_forces:R:3 config_type=buildcell buildcell_config_i=8 RSS_min_vol_per_atom=8.0 buildcell_type=narrow gap_rss_group=ALL gap_rss_iter=0 buildcell_symmetry="1 P1 P 1 @ 0.01" _ConfigSet_loc=" / 0 / 3" vasp_rundir=run_iter_0/run_VASP_1mhp9e5x REF_energy=-24.56215972 REF_stress="0.6821830421007228 0.6758783412151511 0.6983168950258096 0.006144003833413071 -0.004025782043167859 0.0018974352705771304" pbc="T T T"
Li      -0.43433160       1.68581009       1.22291391      -0.16977232       0.17304002       0.29569637
Li      -1.20923772       4.87279561       1.13473136      -0.26064906       0.04168487       0.34412329
Li       2.00346408       4.13463714       1.11119761      -0.22247767      -0.28939837       0.53450598
Li       5.39946346       1.63460542       5.10627901       0.41138768       0.30860875       0.02549724
Li       1.88280547      -0.33401677       4.98036020       0.05317131      -0.31544174       0.17944330
Li       1.96636455       3.68732874       5.18427672      -0.52128409       0.57194203      -0.55476369
Li      -0.09080241      -0.14123037       3.34617397       0.07029761      -0.00808968      -0.30377797
Cu       1.72068488       1.83377878       6.56043578      -0.95237061      -0.73569529       0.13936405
Cu       3.73165198       2.91473996       6.58781124       1.29193881       0.50293705       0.12416023
Cu       3.73462796       0.53613224       6.67374123       0.13334367      -0.12824917      -0.27455740
Cu       0.55389951       5.82891106       3.50029228      -0.01696431       0.06567423      -0.42431901
Cu       1.39929749       2.05548279       3.37955764       1.42372699      -1.41842422       0.10018283
Cu      -2.09825148       2.84086150       3.36882340      -0.83379452       0.00573044      -0.28266323
Cu       0.01968582       3.62509370       2.78376943      -0.40655349       1.22568107       0.09710802
12
Lattice="5.4648 0.0 0.0 -2.732399999999999 4.7326556266012005 0.0 0.0 0.0 7.07704" Properties=species:S:1:pos:R:3:REF_forces:R:3 config_type=buildcell buildcell_config_i=9 RSS_min_vol_per_atom=8.0 buildcell_type=narrow gap_rss_group=ALL gap_rss_iter=0 buildcell_symmetry="1 P1 P 1 @ 0.01" _ConfigSet_loc=" / 0 / 4" vasp_rundir=run_iter_0/run_VASP_4liwud16 REF_energy=-18.25244164 REF_stress="0.7134538084691543 0.7179302509517683 0.7574291779854188 0.0026622669028026308 0.0027508806911683034 0.004945425084310406" pbc="T T T"
Li       4.32524186       1.34229048       6.13570783       0.12823079      -0.17270983      -0.20179434
Li       2.30488634       3.00127835       6.04752528      -0.55936226       0.55240582      -0.28138940
Li       1.92696830       0.42858802       6.02399154      -0.15732410      -0.68017770      -0.21489128
Li      -1.48891444       3.33019694       0.95952805      -0.31300917       0.31164994       0.17644246
Li       0.60401287       1.51663391       0.83360924       0.11478101      -0.02092664       0.27562374
Li       0.90712422       4.27952796       1.03752576       0.23585378       0.21281361       0.22952865
Cu       0.51996031       1.78939166       4.58043588      -0.32063786       0.18350581      -0.71051349
Cu       0.73247329       4.30303346       4.29139619       0.41410909       0.00609330      -0.40164330
Cu      -1.42025191       3.24950085       4.31877165      -0.15726966       0.09890692      -0.46879554
Cu       2.15920709       2.74196973       2.61399962      -1.19138266       2.72178626       0.40651411
Cu       1.91717842       0.62160280       2.64181927      -1.04601333      -2.58475564       0.70785558
Cu       3.99244255       1.57650153       2.52108463       2.85202438      -0.62859184       0.48306280
14
Lattice="3.65834 0.0 0.0 -1.430408267988451 6.736745283278141 0.0 -1.6445458855886579 -2.8282815795903242 8.07598592475516" Properties=species:S:1:pos:R:3:REF_forces:R:3 config_type=buildcell buildcell_config_i=15 RSS_min_vol_per_atom=8.0 buildcell_type=wide gap_rss_group=ALL gap_rss_iter=0 buildcell_symmetry="1 P1 P 1 @ 0.01" _ConfigSet_loc=" / 0 / 5" vasp_rundir=run_iter_0/run_VASP_tj1nrhc4 REF_energy=-23.49482035 REF_stress="0.7473082900386808 0.73090288701459 0.7204329813548607 0.00951285917053871 -0.0027695707716570875 -0.0037432503334154264" pbc="T T T"
Li       1.80406143       2.20015095      -0.53648668       0.03137861       0.33233527      -0.82888239
Li       1.45117238      -0.37934089       2.76857093      -0.08156856       0.22132190      -0.03531584
Li       0.02282118       3.48757972       1.00055962      -0.31994753       0.54946411      -0.19452875
Li       2.17013661       1.25716527       6.50101081      -0.47844909      -0.03225698      -0.09162419
Li       1.74441947      -1.27068150       5.18632383      -0.07700031       0.34737760       0.40924047
Li       1.63910108       4.29759709       2.79489871       0.29511108      -0.07682792      -0.01316052
Li       3.42961881       0.55934654       0.91367694       0.16539542      -0.05372101      -0.01357600
Cu       1.66970313       1.95878112       1.77955815       0.43905232      -0.15123288      -0.78793611
Cu       0.29595079       2.25197040       7.93313021       0.14778151      -0.38052887       0.32022852
Cu       0.32628786       2.57035187       5.47282862       0.41280767       1.74094463       1.12428191
Cu      -0.16812347       0.66250667       4.67849272      -0.15846759      -3.96890060       0.58113819
Cu      -0.06017583      -3.02870741       7.33099269      -0.26291350      -0.60448517       1.59392120
Cu      -0.11680519       2.09448307       3.13998034      -0.39756631       1.63227581      -0.28728890
Cu      -1.52002695       4.04792200       5.20267086       0.28438628       0.44423412      -1.77649757
22
Lattice="8.06212 0.0 0.0 -4.031059999999998 6.982000728358599 0.0 0.0 0.0 9.2813" Properties=species:S:1:pos:R:3:REF_forces:R:3 config_type=buildcell buildcell_config_i=33 RSS_min_vol_per_atom=10.0 buildcell_type=wide_even gap_rss_group=ALL gap_rss_iter=0 buildcell_symmetry="1 P1 P 1 @ 0.01" _ConfigSet_loc=" / 0 / 6" vasp_rundir=run_iter_0/run_VASP_xvjg0w5u REF_energy=-35.2519634 REF_stress="-0.006444327876189167 -0.006424527156600487 -0.01116984600678053 0.00030098720936223015 0.0013059821637861715 0.0009779050384705252" pbc="T T T"
Li       2.69875546       3.25412764       0.27855432      -0.07178213      -0.25128044       0.09555425
Li       5.68895301       3.03043428       0.19037177      -0.11669718       0.12007421      -0.18744899
Li       4.06536842       0.73693982       0.16683803      -0.42725034      -0.09504869       0.05990786
Li      -0.21793528       2.82409209       7.94484351      -0.09550038       0.30427614      -0.42454045
Li      -1.38490030       5.59118034       7.81892470       0.22995773       0.30849497      -0.02370917
Li       1.62505785       5.20977682       8.02284122      -0.17924381      -0.04307107      -0.31123190
Li       4.15116588       5.29551815       9.31789911       0.15174852       0.51594100       0.15779447
Li       6.59586056       0.59672699       9.02885941       0.19567169      -0.24756683       0.04383251
Li       1.17833526       0.96637030       9.05623487       0.17899315      -0.39696095       0.23535665
Li       2.52768053       2.03173936       7.04044788      -0.19383426       0.01376725      -0.25165843
Li       4.53738791       3.96482779       7.06826753      -0.23192949      -0.07055479      -0.22375592
Li       4.89973841       1.19285272       6.94753289       0.30275614       0.12088238      -0.11629153
Li      -1.16419368       6.74295756       2.56807125      -0.46308814       0.77676355       0.46616422
Li       2.59045030       4.61269452       2.71802668       0.20028118      -0.14409044       0.44391275
Li      -1.39725017       2.45611935       2.55303766      -0.10501154      -0.52589719       0.53050458
Li       1.20024311       2.16301741       2.38662604       0.17497391      -0.30493036      -0.49344925
Li       5.34242778       4.59937471       2.31332221      -0.58603602       0.17986244       0.04843881
Li       5.47437709      -0.07045079       2.34208144       0.48150063       0.35723621      -0.13510473
Li       5.49871044       5.32813371       4.85616990       0.22078540       0.25022610       0.13754383
Li       5.83598144      -0.27511153       5.03764617       0.20168584      -0.40474150      -0.01653864
Li       0.78274940       2.03666701       4.82945816      -0.34248123       0.03820648       0.47859188
Li      -0.11962107       4.73591997       1.84840346       0.47450033      -0.50158845      -0.51387278
24
Lattice="4.54628 0.0 0.0 0.0 10.02412 0.0 0.0 -5.012059999999997 8.681142570583669" Properties=species:S:1:pos:R:3:REF_forces:R:3 config_type=buildcell buildcell_config_i=36 RSS_min_vol_per_atom=10.0 buildcell_type=wide_even gap_rss_group=ALL gap_rss_iter=0 buildcell_symmetry="1 P1 P 1 @ 0.01" _ConfigSet_loc=" / 0 / 7" vasp_rundir=run_iter_0/run_VASP_dwpcbiwf REF_energy=-42.22024688 REF_stress="-0.03977280463509807 -0.028890611552481345 -0.02983399223871636 0.0010428752412862572 -0.0001630992092928685 2.8627817560524477e-05" pbc="T T T"
Li       1.30254617       6.08188655       0.24947839      -0.27714060      -0.14642567      -0.21280449
Li       1.40517774       6.79288502       5.16327383      -0.38994491      -0.35910065      -0.02762309
Li       1.41079604       2.20091013       3.26279807      -0.42196280      -0.02696226       0.10315533
Li       1.18959987       3.47926904       0.95704784      -0.14624903       0.19725249      -0.14321479
Li       1.15954010       7.20082545       2.37896634      -0.03619178       0.35747415       0.40833195
Li       1.07911512       4.01713260       5.15748837       0.25920250       0.49171032      -0.03101412
Li       3.31767737       5.99467532       1.96004080       0.34243051       0.25419225      -0.49291673
Li       3.38590215       5.39240375       4.26463742       0.16410452      -0.21822340       0.48414547
Li       3.35404150       3.52571563       2.34545504       0.43360547      -0.22477329      -0.02439383
Li      -0.96330465      -2.02426262       4.03258011       0.06938146       0.08515306       0.13011853
Li      -1.06104511       2.66180896       4.94787209       0.05092426      -0.47409559       0.11397459
Li      -1.10664555      -0.43012790       8.22922948       0.21258550      -0.24495452      -0.04211372
Li       1.34298459      -0.60637604       4.14890408       0.04624858       0.14111549       0.26903263
Li       1.34178435       1.58303055       6.20199341      -0.12929906      -0.31351429      -0.18046033
Li       1.31053340      -1.12888524       6.74785367      -0.18235712       0.24079972       0.15819122
Li       3.55079290      -2.67539306       6.78306218       0.22647369       0.18262248      -0.52714067
Li       3.65713915       0.36766638       3.09780925      -0.09523702       0.64489354       0.28157860
Li       3.58426909       2.01766809       7.68070109       0.15293322       0.09612314      -0.05736043
Li       3.80864912       8.81432192       1.00997513      -0.41131979      -0.42667482       0.13218902
Li       3.67462793       4.74930690       7.10338154      -0.06363107      -0.03689977      -0.47709007
Li       3.65763175       1.58023964       0.47078516      -0.14918438       0.03468733       0.69942998
Li       1.31278714       0.15967177       1.69253397       0.35399084      -0.08863456      -0.31082425
Li       1.42520679       3.72488011       8.00676420       0.01860080      -0.16851575      -0.01502505
Li       1.36789583      -3.66680645       7.98857823      -0.02796381       0.00275059      -0.23816573
8
Lattice="5.46784 0.0 0.0 -2.7339199999999986 4.735288343828705 0.0 0.0 0.0 6.33287" Properties=species:S:1:pos:R:3:REF_forces:R:3 config_type=buildcell buildcell_config_i=38 RSS_min_vol_per_atom=10.0 buildcell_type=wide_even gap_rss_group=ALL gap_rss_iter=0 buildcell_symmetry="1 P1 P 1 @ 0.01" _ConfigSet_loc=" / 0 / 8" vasp_rundir=run_iter_0/run_VASP_h2bso41p REF_energy=-13.41433791 REF_stress="-0.03523024214509871 -0.03524045736094167 0.05052443590743476 -0.0016902341507441378 -0.0008645068352753735 3.756853596449633e-05" pbc="T T T"
Li       0.09154140       4.73865575       4.63334624      -0.14020691       0.07972413       0.14684067
Li       1.51321884       2.29937145       4.54516369      -0.20384712      -0.26066327       0.00415546
Li      -1.24486373       2.47205073       4.52162994       0.14303170      -0.16652869       0.22365908
Li       2.74630602      -0.06353560       1.71771964      -0.04405968      -0.26319033      -0.07596395
Li       1.39720038       2.22117353       1.59180084      -0.00373905       0.22658332      -0.18389556
Li       4.08047626       2.23869798       1.79571735       0.05465334       0.33030330      -0.17802576
Li      -0.09080241      -0.14123037       4.92148679       0.20740767       0.35768925      -0.04507580
Li      -0.02257763       0.00675282       1.41547326      -0.01323995      -0.30391772       0.10830585
16
Lattice="5.27895 0.0 0.0 2.125939144434762 6.302774270887384 0.0 1.0629689804411082 3.1513842444553015 6.523415637564334" Properties=species:S:1:pos:R:3:REF_forces:R:3 config_type=buildcell buildcell_config_i=42 RSS_min_vol_per_atom=7.0 buildcell_type=narrow gap_rss_group=ALL gap_rss_iter=0 buildcell_symmetry="1 P1 P 1 @ 0.01" _ConfigSet_loc=" / 0 / 9" vasp_rundir=run_iter_0/run_VASP_47ogywuj REF_energy=-24.19782101 REF_stress="1.2196907086899367 1.1684484658908838 1.1894561983300163 0.015118270405110133 -0.00026634951132099307 0.006637520228381553" pbc="T T T"
Li       4.64259982       4.84448106       3.90124373      -0.22949933      -0.51402620      -0.34252373
Li       1.04278693       1.68350553       2.66352706      -0.38188869      -0.03199961      -0.19735671
Li       3.72346572       4.01070019       6.10901920      -0.24686506      -0.63122373      -0.45919525
Li       5.19630640       0.73623038       0.32087602       0.09975871      -0.00271242       0.44525824
Cu       2.05278730       2.73948907       0.64763007       0.23980189       0.39228188       0.46036184
Cu       5.67480666       5.98091958       5.73471851      -0.20125106      -0.59098979       0.15489864
Cu       1.62213568       3.13978104       4.75609843       0.11438542       3.56248542      -2.68817149
Cu       5.39280528       6.43915257       1.77140726       0.00486274       0.37631002      -0.25371887
Cu       3.84844441       7.69922473       5.79537549       0.94093134      -2.03153800       2.59449906
Cu       5.51695839       4.47668381       0.58377141       1.24621635       0.62847982      -1.55729647
Cu       4.17293125       3.25784835       1.88841594       0.14729668      -3.75586429       1.26173768
Cu       2.55082514       6.30626094       4.51156561      -0.27389017      -3.14817280      -0.80722289
Cu       5.11262492       7.24050379       3.82484894      -0.10258538       0.86428500       0.45336749
Cu       6.68793024       4.35893094       2.58288492      -0.98536560      -0.61991158       1.89748454
Cu       6.96639440       8.25974838       4.81176959      -0.66324195       2.36901234       0.36567274
Cu       3.20353054       5.09240924       1.66950607       0.29133412       3.13358394      -1.32779484
12
Lattice="4.97094 0.0 0.0 -0.37782259458403955 5.571564115813601 0.0 0.0 0.0 6.21889" Properties=species:S:1:pos:R:3:REF_forces:R:3 config_type=buildcell buildcell_config_i=46 RSS_min_vol_per_atom=7.0 buildcell_type=narrow gap_rss_group=ALL gap_rss_iter=0 buildcell_symmetry="1 P1 P 1 @ 0.01" _ConfigSet_loc=" / 0 / 10" vasp_rundir=run_iter_0/run_VASP_vb2fpcuq REF_energy=-17.32454512 REF_stress="1.1469847970958484 1.1768518663557321 1.078113327953512 -0.002241918870471637 -0.005494621027239996 -0.004156016186701805" pbc="T T T"
Li       2.14049884       4.21038528       6.28365885       0.11434610      -0.24610621      -0.54025869
Li       2.65459297       1.32393707      -0.02341370      -0.55832004       0.58139012       0.16955525
Li      -0.03099002       2.86252553       6.17194256      -0.28717691       0.11162714       0.12625885
Cu       1.32121957       2.22797070       4.21048671      -1.46495195       0.35140383       1.90754764
Cu       3.35035006       3.10592362       4.08456790       1.51449858       0.46790474       2.25668967
Cu       3.26992508       3.19596853       1.99325505       0.55376765       0.23466549      -2.14723217
Cu       1.17616116       2.13308210       2.10839519      -0.91739906       1.16612089      -1.95530467
Cu       3.23485169       5.60142221       1.72979726       0.36411932       0.20807236       1.95813523
Cu       1.28124982      -0.01201302       1.75717273      -0.39717788      -2.03200683       0.84854822
Cu       1.37325789      -0.08316915       4.31744854      -1.17290990      -1.51330484      -0.88721347
Cu       3.19725866       5.77989721       4.34526819       0.91207993       0.76003888      -2.07186737
Cu      -0.10577109       0.08225449      -0.12208436       1.33912416      -0.08980557       0.33514151
16
Lattice="3.98201 0.0 0.0 0.0 3.98201 0.0 0.0 0.0 14.48384" Properties=species:S:1:pos:R:3:REF_forces:R:3 config_type=buildcell buildcell_config_i=48 RSS_min_vol_per_atom=7.0 buildcell_type=narrow gap_rss_group=ALL gap_rss_iter=0 buildcell_symmetry="1 P1 P 1 @ 0.01" _ConfigSet_loc=" / 0 / 11" vasp_rundir=run_iter_0/run_VASP_phe3vyaw REF_energy=-21.82965821 REF_stress="1.0796245872981847 1.08137005970347 1.0540688134662364 -0.024269766750549752 -0.005321967334501752 -0.0002226361971390464" pbc="T T T"
Li       2.04067642       1.97717857      13.22092449      -0.05788185      -0.11092020      -0.12890278
Li       2.14330799       1.96758966       1.30427067      -0.09971412       0.07298632      -0.04669600
Li       0.15792128       0.07674347       8.52265693      -0.28822353      -0.39790596      -0.22204885
Li       4.03626600      -0.04634177       5.86766266      -0.29415815       0.08520832       0.11179212
Cu       1.02073724       3.22201949      11.22346305      -0.32583116       2.36319768       1.24247048
Cu       2.92924024       0.46737937      11.42737957       0.08412024       1.52112206      -0.60288014
Cu       3.32254511       2.84423862       3.23445004       0.40941483       3.52861286      -2.36396158
Cu       0.54608486       1.00329383       2.94541035       0.49285689       0.09994598       1.11520131
Cu       0.94002572       1.43343477      10.21470581       0.78039719      -3.53005076      -0.17222925
Cu       3.02511581       2.49960362      10.30063579      -0.98726566       0.04963378      -1.39046700
Cu       2.49949682       1.17969181       4.15268511       0.41179827      -3.59531476       1.06879649
Cu       1.31657142       3.06980050       4.03195047      -0.24139557       0.62595421       1.38951866
Cu       0.02088636      -0.19596701      13.22386579       0.40600127      -0.07634534       2.40907122
Cu       4.00169612       0.07384666       1.14429243      -0.47079922      -1.35015042      -2.28264421
Cu       1.97944017       1.96089463       8.22122340       0.49251156       0.23310322       3.06297427
Cu       1.91902058       1.94494112       6.22047662      -0.31183098       0.48092300      -3.18999475
12
Lattice="3.50236 0.0 0.0 0.0 5.89561 0.0 -0.2162426245014017 0.0 8.385432242630595" Properties=species:S:1:pos:R:3:REF_forces:R:3 config_type=buildcell buildcell_config_i=49 RSS_min_vol_per_atom=7.0 buildcell_type=narrow gap_rss_group=ALL gap_rss_iter=0 buildcell_symmetry="1 P1 P 1 @ 0.01" _ConfigSet_loc=" / 0 / 12" vasp_rundir=run_iter_0/run_VASP_c7cnhc3g REF_energy=-16.93701766 REF_stress="1.0988956199104214 1.099027961761655 1.0751930319017173 0.005005096058632989 -0.01565482501390898 -0.009434822468232087" pbc="T T T"
Li       0.76559865      -0.64205320       1.20631296       0.24077443      -0.21287649      -0.12057450
Li       2.72249313      -0.65164211       7.22047444      -0.38625393      -0.14879863      -0.01296906
Li      -0.05832134       3.01500820       8.33848480       0.23442811      -0.71133897       0.09404455
Cu       2.51718092       1.08582111       1.31719599      -0.24096472      -0.25136300      -1.44834069
Cu       0.84738869       0.94083485       6.84917149       0.35899275       0.34829801       0.98665307
Cu       2.46151982       2.99603515       6.04550370      -0.01269850       0.41401174       0.56485774
Cu       0.67756640       2.95608789       2.51791816       0.24808383       0.94480328      -3.12493049
Cu       2.49641019       2.08619165       3.30973804      -1.29260566      -0.18322656       0.71097984
Cu       0.71269129       2.09053109       4.81812003       0.15828683       1.60439484       0.91567148
Cu       0.80506522       0.26498469       3.41907717      -1.68195227       1.06486484      -2.65403151
Cu       2.45845129       0.51027638       4.93583597       0.74586660      -2.07459541       2.15701421
Cu       1.53728759       4.28847568       4.07063176       1.62804253      -0.79417364       1.93162538
8
Lattice="4.0009 0.0 0.0 -0.2617559152047169 5.061155694824586 0.0 0.0 0.0 5.22715" Properties=species:S:1:pos:R:3:REF_forces:R:3 config_type=buildcell buildcell_config_i=52 RSS_min_vol_per_atom=7.0 buildcell_type=wide gap_rss_group=ALL gap_rss_iter=0 buildcell_symmetry="1 P1 P 1 @ 0.01" _ConfigSet_loc=" / 0 / 13" vasp_rundir=run_iter_0/run_VASP_5_guo5rx REF_energy=-13.7378011 REF_stress="1.1991460009575494 1.216874637607994 1.2830554573275172 0.0009614250888462347 -0.0029874741884637047 -0.0010709985701471546" pbc="T T T"
Li       1.93781249       5.23576470       3.73851651       0.45166590       0.07269981      -0.46914927
Li       0.03999406       5.22617579       1.52998865      -0.24589375      -0.22367346       0.33218382
Cu       4.04620393       3.91843091       4.14458183      -1.06612580       0.90622906       0.94927400
Cu       1.94208865       3.79534567       0.98904775       0.07321884       0.30746315      -0.38584370
Cu       3.83111207       2.57402671       1.85239374       0.82764826       0.60536906       0.76865218
Cu       1.75023709       2.66407163       3.23368921       2.56474059       0.38090224      -1.51831356
Cu       2.24779166       1.46061933       0.71405930      -0.86571856      -0.86836311      -0.61509514
Cu       0.31556644       1.60860252       4.51718076      -1.73953547      -1.18062675       0.93829167
16
Lattice="3.22767 0.0 0.0 -0.5966974186431868 5.814653758108435 0.0 -1.480352771535417 -1.7627492739940016 10.384021084283344" Properties=species:S:1:pos:R:3:REF_forces:R:3 config_type=buildcell buildcell_config_i=54 RSS_min_vol_per_atom=7.0 buildcell_type=wide gap_rss_group=ALL gap_rss_iter=0 buildcell_symmetry="1 P1 P 1 @ 0.01" _ConfigSet_loc=" / 0 / 14" vasp_rundir=run_iter_0/run_VASP_951nefig REF_energy=-23.00761422 REF_stress="1.224470820121207 1.2259096796077777 1.211095375328298 0.0007343258194671069 0.003584191883372163 0.029455408578135212" pbc="T T T"