6
Lattice="4.30957 0.0 0.0 -2.154784999999999 3.7321970993873035 0.0 0.0 0.0 5.85347" Properties=species:S:1:pos:R:3:REF_forces:R:3 config_type=buildcell buildcell_config_i=0 RSS_min_vol_per_atom=8.0 buildcell_type=narrow gap_rss_group=ALL gap_rss_iter=0 buildcell_symmetry="1 P1 P 1 @ 0.01" _ConfigSet_loc=" / 0 / 0" vasp_rundir=run_iter_0/run_VASP_iyjjfzog REF_energy=-10.21358099 REF_stress="0.6962539725944802 0.6899906527458923 0.7078067546658836 0.0038830973996446926 0.010167641113041513 0.0049857374313772036" pbc="T T T"
Li       1.12344366       2.59436166       3.78896656       0.48056986      -0.40595325      -0.27907291
Li      -0.48855528       3.33460176       5.65194048      -0.56949801       0.01466708       0.07593586
Li      -0.27499269       1.57493248       1.72609321      -0.75045586      -0.66757304       0.14133944
Cu       1.77604472       1.94463684       0.55838842      -0.17054079       0.56787162       0.45293399
Cu       1.74863382       0.30429543       2.38362608      -0.03200541       0.10030548       0.27150248
Cu       2.96189995       1.14431192       4.53869907       1.04193022       0.39068211      -0.66263887
24
Lattice="5.17301 0.0 0.0 0.0 8.03018 0.0 0.0 0.0 9.80653" Properties=species:S:1:pos:R:3:REF_forces:R:3 config_type=buildcell buildcell_config_i=2 RSS_min_vol_per_atom=8.0 buildcell_type=narrow gap_rss_group=ALL gap_rss_iter=0 buildcell_symmetry="1 P1 P 1 @ 0.01" _ConfigSet_loc=" / 0 / 1" vasp_rundir=run_iter_0/run_VASP_53dcd0oy REF_energy=-36.13931667 REF_stress="0.642670017719934 0.5916004633913081 0.668338680266929 0.005420289447029734 0.0016403305078111399 0.0005409921220590563" pbc="T T T"
Li      -0.47656855       5.33720848       0.24566011       0.24909749      -0.13633940      -0.70769843
Li       2.21256802       2.65572975       9.60222505      -0.27763598       0.28962379       0.43801058
Li       2.21818632       5.42777838       9.57869131      -0.29211710      -0.31692042       0.39306488
Li      -0.47198396       2.63280332       0.13431828       0.24292082       0.19650704      -0.23074341
Li       0.80038465       1.13667745       1.91412206      -0.05093228       0.16058600       0.28162779
Li       3.30646467       6.60089142       7.75134089       0.01855621       0.65610475      -0.09359113
Li       3.27189102       1.18677510       7.86648104       0.05509872      -0.24151520      -0.31456028
Li       0.75361079       6.70892735       1.94413902       0.03501371       0.24653256       0.16898974
Li       3.65443919       6.70796928       4.40281707       0.17322162       0.16389301       0.05915573
Li       1.15994226       1.27323911       5.25944420      -0.16270704       0.40819878       0.28833851
Li       1.06220180       6.88210484       5.28726385      -0.12033461      -0.39577303       0.53918492
Li       3.60310637       1.41555747       4.39583206       0.21797908      -0.68854781       0.12033464
Cu       3.18809587       0.94320797       1.31048491       0.55971679       1.71912528      -0.02515849
Cu       0.60039064       6.96485167       8.38036332       0.17022039      -1.60522544      -0.23240522
Cu       0.56913969       1.10906462       8.21537429      -0.47439656       0.27368756       0.31194581
Cu       3.09522509       6.84494114       1.54901573      -0.57207384      -0.31790300      -0.23333213
Cu       1.53775182       4.97491994       7.23171647       0.47134547       2.62341689      -0.06048770
Cu       4.05138677       2.81126384       2.66838955       1.18338010       0.32189584      -1.07348619
Cu       4.19299495       5.24435197       2.52330017       0.43744761      -2.09514231       1.21098658
Cu       1.47246876       2.91208239       7.29686259       0.67850652      -1.28050916      -0.72103762
Cu       4.54964074       2.86172476       6.12855253      -0.40430901      -0.37465061       0.26581647
Cu       1.89143250       5.23114192       3.70296798      -0.20259571       0.80577141      -0.31215733
Cu       2.00385215       2.98064395       3.60350758      -1.51675564      -0.71255830       0.10311547
Cu       4.53304618       5.18602890       6.39298968      -0.41864678       0.29974178      -0.17591320
20
Lattice="6.81001 0.0 0.0 0.21448375513438198 6.806631539820813 0.0 0.21448375513438198 0.20783161653603888 6.803457866265615" Properties=species:S:1:pos:R:3:REF_forces:R:3 config_type=buildcell buildcell_config_i=13 RSS_min_vol_per_atom=8.0 buildcell_type=wide gap_rss_group=ALL gap_rss_iter=0 buildcell_symmetry="1 P1 P 1 @ 0.01" _ConfigSet_loc=" / 0 / 2" vasp_rundir=run_iter_0/run_VASP_51rwfvb4 REF_energy=-33.87708857 REF_stress="0.6830895268547412 0.6769275454777627 0.6842402098169477 0.01809106843384542 0.00752226546283155 0.009516691382243894" pbc="T T T"
Li       4.62211451       3.51406502       0.80260930      -0.60260742      -0.28650708      -0.45660281
Li       3.82245500       0.85023274       4.41104068      -0.43942468      -0.50211629      -0.55268881
Li       1.14672872       4.62029778       3.45677009      -0.78422957      -0.35984013      -0.09975066
Li       5.16570740       2.82106071       3.25594794       0.48029609      -0.11005975      -0.04679073
Li       3.05116321       3.26288963       4.74293577      -0.15596392       0.11664131       0.55929195
Li       3.49161068       4.90090938       2.79665208       0.31901785       0.67997810      -0.32797822
Li       6.23885748       1.15431605       1.62282611       0.25995453       0.85495734      -1.00552370
Li       1.47168102       1.67425187       6.09523471       0.08307545      -0.08867494       0.27816790
Li       1.65929575       6.28989240       1.13476729      -0.09138909      -0.06623373       0.30222657
Li       5.39806595       5.13417836       5.00882247      -0.19278088       0.13710845      -0.49086236
Cu       5.82710980       6.23928188       2.74910868      -0.84624763      -1.41601197      -0.20559240
Cu       6.13070159       3.00527971       5.48496434       0.53187930      -0.65307563       0.17976377
Cu       3.13888145       5.59598445       5.83443102       0.76689708       0.04769331       0.27275407
Cu       0.88657564       6.06362595       5.55641629       1.55636367      -0.89561335      -0.72526528
Cu       6.00254592       5.52728236       0.36050625      -0.69048797      -1.47995273       3.05877197
Cu       5.67206789       0.64025510       5.92356403       0.38441792       2.93681805      -2.16930757
Cu       3.93879963       0.06206208       0.65654061      -2.26050381       0.49969198       1.44255049
Cu       0.32271131       0.67507755       3.93528786       0.47236825       2.04540556      -0.86954015
Cu       0.85687795       3.97575148       0.13527614       0.89126933      -1.92254350       0.53685201
Cu       1.90698055       1.91092479       1.91886604       0.31809550       0.46233502       0.31952397
12
Lattice="6.31135 0.0 0.0 -1.5344198194604601 6.121984534458326 0.0 -1.5344198194604601 -1.9664709445349866 5.79755868141467" Properties=species:S:1:pos:R:3:REF_forces:R:3 config_type=buildcell buildcell_config_i=19 RSS_min_vol_per_atom=8.0 buildcell_type=wide gap_rss_group=ALL gap_rss_iter=0 buildcell_symmetry="1 P1 P 1 @ 0.01" _ConfigSet_loc=" / 0 / 3" vasp_rundir=run_iter_0/run_VASP_9jmi6ggl REF_energy=-18.42969179 REF_stress="0.585188788313394 0.5956567762319953 0.6080741381268818 0.012145953528071855 0.013488096149605232 0.008807664496411058" pbc="T T T"
Li       0.66085257       3.71798244       3.98433711      -0.00519740       0.15001965      -0.24749335
Li       2.44145265       1.18042547       4.76965591      -0.59566556       0.13731570       0.26295712
Li       3.62917034       3.30673826       2.63270158      -0.38484636      -0.25383595       0.07016321
Li       3.87339248       5.11428743       0.77616611      -0.58638327       0.51226119       0.30966683
Li      -1.75648586       3.29963034       4.97893304       0.04295343       0.31262710       0.42085708
Li       4.02105003      -0.91511244       4.99209770       0.72848457       0.36620031      -0.02317796
Cu       4.05089017       0.64856093       3.19043102       0.82776689      -0.15440072      -1.07344338
Cu       1.52048301       4.66331053       1.58319693       0.97885590       1.15896877      -0.13635936
Cu      -0.29527503       1.54151937       4.84900171      -0.14565200       0.38840850       1.14764364
Cu       3.79074185       1.23218292       0.80019053      -0.54494966      -0.28513741       0.26955860
Cu      -0.61343496       3.91582246       1.48881882      -0.56457450      -0.92584302      -0.13424881
Cu       0.23522937      -0.40265473       3.88947665       0.24920796      -1.40658412      -0.86612362
24
Lattice="6.16654 0.0 0.0 1.9548626101057511 6.166476963551435 0.0 1.0070413784187253 1.7292663154800485 12.327130157595423" Properties=species:S:1:pos:R:3:REF_forces:R:3 config_type=buildcell buildcell_config_i=20 RSS_min_vol_per_atom=10.0 buildcell_type=narrow_even gap_rss_group=ALL gap_rss_iter=0 buildcell_symmetry="1 P1 P 1 @ 0.01" _ConfigSet_loc=" / 0 / 4" vasp_rundir=run_iter_0/run_VASP_opuc1txq REF_energy=-42.06866145 REF_stress="-0.013002177512488142 -0.01081005963084891 -0.009104274691461033 -0.002893316872696187 0.004304965982187424 0.00071229299890181" pbc="T T T"
Li       2.45480416       5.76123725       7.09976588       0.12373640       0.12348823       0.34378013
Li       7.48495420       5.72127732       4.52459838       0.10056278      -0.26135329       0.03187481
Li       1.53801108       2.13437769       1.38208868      -0.11730401       0.13937178       0.66908349
Li       0.43969281       1.88484696       3.88928245       0.14478877       0.13538272      -0.25917974
Li       4.20379059       6.34488245       4.97525983       0.01761688       0.11317836       0.09551837
Li       3.78524769       3.46680640       7.66276764       0.00611414       0.88987528      -0.13505008
Li       3.07446452       4.16481399      11.37005447       0.32358771       0.30912763      -0.59447594
Li       3.12427046       4.84584592       1.55599539      -0.24212686      -0.06134423       0.23700423
Li       4.32508445       1.95990531       5.42380443       0.36155117      -0.05120952       0.24255328
Li       4.66115908       2.88918011       0.31497698      -0.21903594       0.01887634       0.10853962
Li       7.02112132       2.61506405      11.88940249      -0.19398055      -0.36778713       0.03220517
Li       1.80786577       2.88736277       9.23860328       0.05918107       0.00596265       0.28154382
Li       1.90562984       2.96150275       5.68402745      -0.11265522       0.38827959       0.02138059
Li       6.08317553       4.89288891       6.76112483      -0.25070620      -0.18998927      -0.18439907
Li       6.45855382       4.91511195       9.55487633       0.01959151       0.22440060      -0.06378416
Li       6.62141890       4.43924241       2.35230704       0.02492144       0.23170681      -0.44131427
Li       7.63584444       6.13793037      11.76880152       0.09450238       0.38550845      -0.06007388
Li       4.38981949       6.48814121      10.48945747      -0.23576334       0.04686131      -0.02489274
Li       4.76560964       4.23717261       3.90878147      -0.39580847      -0.33375990       0.21293004
Li       6.15164766       2.26023320       7.62676838       0.11097509      -0.40867625      -0.46656112
Li       4.82094706       2.62406932       9.83975447       0.03106467      -0.31193265       0.50356680
Li       4.10080630       1.51700593       2.80322976      -0.29178499      -0.20141921      -0.45460403
Li       3.10807421       1.06871227       7.75000706      -0.04074846      -0.49310780       0.01468136
Li       5.56236248       8.09563542      12.47742551       0.68172004      -0.33144050      -0.11032668
11
Lattice="4.14424 0.0 0.0 -0.3204149683394467 7.044717045280387 0.0 -1.7195239575325498 -2.4406367757703165 7.7438942243957" Properties=species:S:1:pos:R:3:REF_forces:R:3 config_type=buildcell buildcell_config_i=29 RSS_min_vol_per_atom=10.0 buildcell_type=narrow_odd gap_rss_group=ALL gap_rss_iter=0 buildcell_symmetry="1 P1 P 1 @ 0.01" _ConfigSet_loc=" / 0 / 5" vasp_rundir=run_iter_0/run_VASP_33m_x_6q REF_energy=-19.02013153 REF_stress="0.0021088275450636264 -0.01977334305638621 -0.0025895679578249904 -0.0004194620501105742 0.003136077530260764 0.0005515751562763036" pbc="T T T"
Li       1.28170835       2.31007721       0.35408384       0.09320959       0.07903689      -0.02494892
Li       0.32945950       4.66987451       1.01639383      -0.35502297      -0.11901229       0.00519140
Li       2.88042013       2.33807965       2.49283768      -0.38098624       0.31312463       0.34290760
Li       2.96474169       0.27433955       5.42432954      -0.28853133       0.13840781      -0.04545668
Li       2.29426979       5.80785417       2.99155111      -0.30140717       0.32492727      -0.03047146
Li       0.14644299       4.25201413       3.74961683       0.35582998       0.18159500      -0.14999505
Li       0.43974880       5.56975602       6.17540336       0.31377312       0.32066077      -0.04254359
Li      -1.65082696       3.91848095       5.51309635       0.07499389      -0.09819079       0.16814438
Li       0.75086056       1.99207521       4.74289562       0.10911818      -0.46386385      -0.22066661
Li       0.48351466       3.21463710       7.24042836      -0.03655397      -0.34336018       0.14082694
Li      -0.29241822       0.42875146       1.19234447       0.41557692      -0.33332525      -0.14298801
10
Lattice="6.24109 0.0 0.0 -1.4003383433581016 6.08196160068617 0.0 -1.4003383433581016 -1.7593970185573813 5.821922280768825" Properties=species:S:1:pos:R:3:REF_forces:R:3 config_type=buildcell buildcell_config_i=30 RSS_min_vol_per_atom=10.0 buildcell_type=wide_even gap_rss_group=ALL gap_rss_iter=0 buildcell_symmetry="1 P1 P 1 @ 0.01" _ConfigSet_loc=" / 0 / 6" vasp_rundir=run_iter_0/run_VASP_cozx95ur REF_energy=-16.21637954 REF_stress="-0.015994224311677085 -0.012887189884028047 -0.0025154887343117075 0.007280860198905731 0.00827782269309219 0.005105531564875522" pbc="T T T"
Li       0.72296297       5.07964366       3.87526473      -0.20493599       0.21615725      -0.05587645
Li       4.96483630       3.10375233       2.80094169      -0.36868973       0.10917050      -0.21334951
Li       2.12554853       1.22068642       5.93105185      -0.40264751      -0.36840777       0.19132855
Li       5.12127550      -0.60164376       3.24619099      -0.10045587       0.16859503      -0.33095380
Li      -1.65385473       1.56827397       5.38748009       0.43329624      -0.25346638       0.09097578
Li       2.03501987       5.57980839       0.45239978      -0.25489545      -0.24496874       0.01204972
Li       1.24578306       3.17143847       2.03901157       0.32084361       0.57610099      -0.53655465
Li       2.90573341       1.22647973       2.36328868       0.34434865      -0.08379167       0.27636986
Li       0.47715253       1.50504401       3.60338278       0.10901891      -0.33038597       0.54085158
Li       2.68344340       3.26423425       4.44822013       0.12411714       0.21099677       0.02515890
12
Lattice="4.32619 0.0 0.0 1.7146119296640967 6.2885398576023634 0.0 2.150750907655121 1.637159888113433 6.260660973641129" Properties=species:S:1:pos:R:3:REF_forces:R:3 config_type=buildcell buildcell_config_i=40 RSS_min_vol_per_atom=7.0 buildcell_type=narrow gap_rss_group=ALL gap_rss_iter=0 buildcell_symmetry="1 P1 P 1 @ 0.01" _ConfigSet_loc=" / 0 / 7" vasp_rundir=run_iter_0/run_VASP_0s2wxv01 REF_energy=-18.74880668 REF_stress="1.1248852462221623 1.1669187984196554 1.1647999390654946 -0.012275567583915653 -0.0052051683451952175 0.009874080800218354" pbc="T T T"
Li       4.85832955       1.15629959       1.71634124      -0.43250400      -0.62834072      -0.38881562
Li       3.12028645       4.69106853       3.91443187      -0.86096371       0.04615595      -0.39980567
Li       4.98188427       1.26879707       4.39035237      -0.55017480      -0.43488011       0.69410445
Cu       4.00565349       6.68088882       6.02109373       0.45238335       1.29447830      -2.86907649
Cu       5.15528029       4.78012532       4.99211277       0.15604709       0.26937920      -0.01429085
Cu       4.72767476       3.15545852       3.05970206       0.07912706       0.40809518      -0.43934046
Cu       2.53380142       2.31556892       1.34801514       0.39269774       0.52863808       0.52469594
Cu       3.50870669       4.92094538       1.16913616      -0.26833426       1.87818565       1.68700990
Cu       5.63839501       5.14830917       1.95007733      -0.19357542       0.09734361       2.18345892
Cu       3.73066242       2.99532379       5.63249848      -0.48060935      -0.61410263       0.01192497
Cu       4.74139777       3.46327906       0.30613826       0.92953170      -2.82963263      -0.33028475
Cu       4.26972461       6.80224883       3.31899027       0.77637461      -0.01531987      -0.65958034
12
Lattice="5.82275 0.0 0.0 -2.9113749999999987 5.042649419885841 0.0 0.0 0.0 7.09649" Properties=species:S:1:pos:R:3:REF_forces:R:3 config_type=buildcell buildcell_config_i=64 RSS_min_vol_per_atom=9.0 buildcell_type=narrow gap_rss_group=ALL gap_rss_iter=0 buildcell_symmetry="1 P1 P 1 @ 0.01" _ConfigSet_loc=" / 0 / 8" vasp_rundir=run_iter_0/run_VASP_n55natml REF_energy=-20.59694507 REF_stress="0.31490848949479316 0.32000214437282093 0.3070649454267708 0.001157906772521543 0.0027543577734872415 -0.0005054798512760823" pbc="T T T"
Li       1.95196675       1.62569018       4.74664407      -0.39395163      -0.09848222      -0.01157579
Li       3.60404229       0.80426245      -0.07253205       0.01747997      -0.26981878       0.05388180
Li       3.53801164       2.65219850       2.26943135      -0.11679926       0.31390462      -0.06267051
Li       0.52297137       2.42085262       2.36804181       0.19204958       0.17926211       0.25400551
Li      -0.98488344       3.21180479       6.97311657      -0.34377547       0.21549930       0.11218277
Li       0.48413555       4.11368852       4.81153595       0.32704023       0.35186042      -0.16216365
Li       1.53537230       2.67538685       0.14656488       0.22411333      -0.05736528      -0.21859611
Li      -1.30777792       2.23278502       4.58851875      -0.13164449       0.07268258      -0.01005924
Li       2.51596231       0.01109226       2.25039707       0.11889004      -0.04027165       0.05651673
Cu       2.91607771       4.92565807      -0.02916937       0.38802201       0.21724742      -0.23740741
Cu       0.00556353       0.18522782       2.36414671      -0.59386941      -0.36921427      -1.17607263
Cu      -0.13863819       0.13918197       4.60890920       0.31244510      -0.51530426       1.40195852
16
Lattice="4.15495 0.0 0.0 1.8539315532137675 7.460376102744311 0.0 1.8539315532137675 1.0911042765581924 7.380156031688951" Properties=species:S:1:pos:R:3:REF_forces:R:3 config_type=buildcell buildcell_config_i=99 RSS_min_vol_per_atom=6.0 buildcell_type=wide_even gap_rss_group=ALL gap_rss_iter=0 buildcell_symmetry="1 P1 P 1 @ 0.01" _ConfigSet_loc=" / 0 / 9" vasp_rundir=run_iter_0/run_VASP_l0z2g8hz REF_energy=-20.24547515 REF_stress="1.480548450061368 1.5185183759423388 1.5038709920988007 0.050060906549710654 -0.022284387636472 -0.021127529762042078" pbc="T T T"
Cu       0.52244825       0.54015387       1.21641342       0.40217910      -2.24288635      -0.53092380
Cu       5.46486425       7.30778248       6.97715065      -0.28747333       0.38795315      -0.37959119
Cu       7.54795755       8.07424355       6.18156403      -0.00337127       0.40766135       0.45151683
Cu       2.60450784       1.17394079       0.33301871       0.54950140      -0.30055742       1.12744465
Cu       3.95853304       5.14192045       1.52749616       0.85081767       0.38724354       1.47015996
Cu       1.79477255       5.98848404       2.38430851      -0.26947117      -0.44528504      -0.48105676
Cu       3.83767389       3.07700154       5.82673296       0.08265443       1.04071442      -1.29684831
Cu       5.98923418       2.46846604       4.88479743      -0.23006689       1.16808616      -0.38517106
Cu       5.30654262       6.57614237       4.71649986       0.35387343       0.45162815      -0.55126879
Cu       4.61687702       2.75161066       1.56316645      -2.82700389       1.79371261      -1.23169430
Cu       2.44166155       2.17165809       2.54720709       1.55099742      -2.42035313       2.47554263
Cu       3.17773480       5.82206034       5.66573584       2.04281220      -1.44100262       0.87213144
Cu       4.56404418       1.34990185       3.37952164      -2.32776896       0.87856257       1.62814152
Cu       5.41681641       4.92466600       6.38173763      -1.12124127      -1.47675784       0.99477703
Cu       3.30809046       6.97550115       3.71996359       1.39924493      -0.30919316      -1.30924411
Cu       2.39369840       3.65459716       1.12126745      -0.16568380       2.12047361      -2.85391575
