12
Lattice="5.24129 0.0 0.0 -2.620644999999999 4.539090288601341 0.0 0.0 0.0 8.22997" Properties=species:S:1:pos:R:3:REF_forces:R:3 config_type=buildcell buildcell_config_i=2 RSS_min_vol_per_atom=8.0 buildcell_type=narrow gap_rss_group=ALL gap_rss_iter=0 buildcell_symmetry="1 P1 P 1 @ 0.01" vasp_rundir=run_iter_0/run_VASP_p26a14lf REF_energy=-18.94139947 REF_stress="0.7318688102092671 0.7244256901217667 0.6624141375250308 0.001401519795538387 -0.00029986510461006976 -0.0004227068109768289" pbc="T T T"
Li       3.53175859       0.01153619       1.10734228       0.13910174       0.25628502      -0.50565310
Li       1.05386855       1.48741769       1.01915973      -0.24008853       0.09552784       0.15814937
Li       3.63620276       3.07963857       0.99562598      -0.29137147      -0.15376017      -0.10331088
Li       4.39397992       1.46449126       7.14082360       0.05442309      -0.35730471       0.17473075
Li       1.78720423       2.81156707       7.01490479      -0.46572473       0.34386541       0.70492204
Li       1.70297355      -0.07592049       7.21882131       0.20707174       0.12199509      -0.46859105
Cu      -1.81636296       2.90749864       5.54345988       0.21830994      -0.26236452      -1.54093389
Cu       0.85983442       4.51585788       5.25442018       0.23392163       0.05687445      -0.59732644
Cu       0.78871023       1.53143876       5.28179565      -0.35456214       0.08926886      -0.74336477
Cu      -0.84484225       4.44904119       2.80390562       0.04715768       0.01056533       0.98356763
Cu      -0.90331916       1.70557432       2.83172527       0.44063659       0.03371432       0.74565531
Cu       1.61978946       3.13098351       2.71099063       0.01112448      -0.23466692       1.19215502
22
Lattice="6.2444 0.0 0.0 -3.1221999999999985 5.407809031391549 0.0 0.0 0.0 10.51923" Properties=species:S:1:pos:R:3:REF_forces:R:3 config_type=buildcell buildcell_config_i=6 RSS_min_vol_per_atom=8.0 buildcell_type=narrow gap_rss_group=ALL gap_rss_iter=0 buildcell_symmetry="1 P1 P 1 @ 0.01" vasp_rundir=run_iter_0/run_VASP_qstjvf8l REF_energy=-36.97289922 REF_stress="0.6647687700674255 0.6485846402321939 0.6790338950937712 -0.008288866856245167 -0.004149146182572982 -0.006855587690772526" pbc="T T T"
Li       1.75274035       1.14373240       7.39556133      -0.35976433      -0.13109683       0.05320740
Li       3.42544387       3.33071332       7.30737878      -0.71642041       0.45129429       0.05252934
Li       4.54831146       0.97286502       7.28384504       0.17807817      -0.66732151      -0.05151686
Li       3.02551512       3.30778689       3.14186455      -0.32477185       0.39164533      -0.07575433
Li       1.87820604       0.70479352       3.01594574      -0.22560284       0.49516199       0.45876270
Li       4.48510232       1.05627572       3.21986225       0.49202582      -0.21507258       0.02582584
Li       4.38137474       2.44078267       0.14656488       0.63070673       0.28339436      -0.07631714
Li       1.74964460       2.58876586      -0.14247482      -0.48515789       0.10351043       0.11758117
Li       3.06776142       0.25487575      -0.11509936      -0.21409339      -0.56706105       0.03028054
Li       0.03756949       3.54514233       6.58028900       0.26882259       0.12626717      -0.29438595
Li      -0.06017097       3.79043402       3.90842191       0.23574769      -0.53135111       0.02893752
Cu      -0.25571725       2.26480620       8.53748883       0.87906688      -1.24876172       0.73157726
Cu      -1.13619472       4.25042334       8.52675459      -0.42641706       1.81094746       0.70153712
Cu       1.32671429       4.26052212       8.67671003      -1.63919661      -0.95809086      -0.55606727
Cu       1.14551687       4.41627999       1.71180460      -1.54363803      -0.93052928       0.25208421
Cu      -1.37901196       4.14061158       1.96536903       0.45344822      -0.46276281      -0.89458296
Cu       0.18430861       2.00624769       1.89206520       0.40830564       3.40362036       0.71919721
Cu      -1.86191299       2.48477095       5.32078263      -0.22796635      -0.04085945      -0.45000764
Cu       1.92650409       2.64559116       5.17569325       0.13979892      -0.42019304       0.03896149
Cu      -0.03092155       5.74381865       5.35716951       0.02248321       0.51913136       0.01321403
Cu       6.19648258      -0.01856590       9.25863218       1.60273916       0.82344578       0.85364476
Cu      -0.11962066       0.08125258       1.28558833       0.85180574      -2.23531827      -1.67870845
14
Lattice="6.33604 0.0 0.0 -0.9492244631037287 6.2645331669842275 0.0 -2.693407644807051 -3.1322664397051825 5.76066524786778" Properties=species:S:1:pos:R:3:REF_forces:R:3 config_type=buildcell buildcell_config_i=8 RSS_min_vol_per_atom=8.0 buildcell_type=narrow gap_rss_group=ALL gap_rss_iter=0 buildcell_symmetry="1 P1 P 1 @ 0.01" vasp_rundir=run_iter_0/run_VASP_84l0q8wo REF_energy=-23.12385221 REF_stress="0.7056527349060167 0.6777822700269925 0.6433935980823918 0.006651295401301615 0.0030677134631672694 -0.013486242683538227" pbc="T T T"
Li       3.20988418      -1.48714836       4.47542623      -0.25986161      -0.40125196      -0.78144553
Li       1.86479877      -0.25185808       1.32659417      -0.08076721       0.13183450       0.21523136
Li      -0.32449834       1.73568868       1.30306043      -0.41955571      -0.17906153       0.57553351
Li      -1.87588102       2.85748214       4.36408440      -0.09276582      -0.20440631      -0.29097115
Li      -1.29186713      -1.72182828       2.28168123      -0.11312417      -0.06418150       0.01308240
Li       1.32111514       1.50048261       3.33791697       0.08515137       0.06291496       0.58256147
Li       4.71372907       5.44614247       0.14656488      -0.03730571      -0.00480976      -0.26244894
Cu       3.40724799       1.91151487       1.76919503      -0.14652792       0.88119964       1.42498307
Cu      -1.37841483       0.55530237       3.73389604       0.81547915      -0.32638736      -1.53811753
Cu       0.77398770      -1.28756835       3.81982602      -0.34155590       1.25742518      -1.83450087
Cu       1.30926051       3.86170447       1.91032013       0.45175591      -0.98647990       0.34237252
Cu       3.52280924       0.72347958      -0.12208436       0.93773267      -1.21564688       0.50674909
Cu       0.11126436       3.48772633      -0.13281860      -0.27167359       1.40150959       0.97933993
Cu       2.99494770       3.53389178       0.01713683      -0.52698148      -0.35265868       0.06763066
14
Lattice="5.50293 0.0 0.0 -2.7514649999999987 4.765677175247501 0.0 0.0 0.0 8.84092" Properties=species:S:1:pos:R:3:REF_forces:R:3 config_type=buildcell buildcell_config_i=9 RSS_min_vol_per_atom=8.0 buildcell_type=narrow gap_rss_group=ALL gap_rss_iter=0 buildcell_symmetry="1 P1 P 1 @ 0.01" vasp_rundir=run_iter_0/run_VASP_fqt2fqdm REF_energy=-22.40737095 REF_stress="0.6701305577370712 0.6773572724136459 0.6716380237608821 -0.00045675101639830397 -0.0017671180275906822 -9.448134371378789e-05" pbc="T T T"
Li       1.20113971       1.39383356       1.41274481      -0.58374639      -0.06282189      -0.61995690
Li       3.86042925       0.26995594       1.32456226       0.25433822      -0.23525587       0.02859763
Li       3.55272090       3.14138986       1.30102852      -0.16378597       0.30043161       0.25910638
Li       2.16238584       3.01830462       7.44637107      -0.11438105       0.40194630       0.28314369
Li       4.37565738       1.21633196       7.32045226       0.45516609       0.22549965       0.07074499
Li       1.73857443       0.19208816       7.52436878      -0.28678203      -0.07175786      -0.38743934
Li      -0.09080241      -0.14123037       4.56702488       0.41587773       0.81627664      -0.35631657
Cu       1.88139735       2.66094192       3.24194341      -0.54274900       1.05879005      -0.02663136
Cu       2.19790905       0.33288841       3.26931887      -0.36327045      -1.15870981      -0.10851504
Cu       4.13564249       1.72962805       3.35524885       1.00734180       0.17235951      -0.52717342
Cu       1.34468665       1.97491974       5.45515205      -1.60789672      -0.25872473      -0.02691206
Cu       3.49318392       2.73644359       5.33441741       1.66468306       0.15831675       0.83022844
Cu       3.27146904       0.12582914       5.32368317      -0.43082340      -0.96780293       0.74317180
Cu       0.01968585       3.25096493       8.85805683       0.29602810      -0.37854743      -0.16204825
12
Lattice="4.35339 0.0 0.0 0.9595956197077354 7.147552355109946 0.0 0.9744347367575773 0.9071654733799043 7.1491425325144835" Properties=species:S:1:pos:R:3:REF_forces:R:3 config_type=buildcell buildcell_config_i=10 RSS_min_vol_per_atom=8.0 buildcell_type=wide gap_rss_group=ALL gap_rss_iter=0 buildcell_symmetry="1 P1 P 1 @ 0.01" vasp_rundir=run_iter_0/run_VASP_zp1v6nzg REF_energy=-18.47217569 REF_stress="0.5827992957878518 0.5941614274490356 0.6197921187266896 0.010126134365822348 -0.02197338405950606 0.026179187291508883" pbc="T T T"
Li       4.69485417       6.36570468       0.95171936      -0.44160049      -0.13860994      -0.03419332
Li       1.79454059       1.65177138       6.23877833      -0.60214341       0.71797344      -0.17094071
Li       5.72654308       6.32947698       5.23582207      -0.35075717      -0.19711990      -0.26204589
Li       0.77305457       1.75564255       1.81980005      -0.51513601       0.06938360       0.11085608
Li       3.41612540       5.08714113       3.84430399       0.59318619       0.04922659       0.59935034
Li       2.83926243       2.67496556       3.16377149      -0.38939706      -0.04952922      -0.46619376
Cu       2.37768512       6.44783782       2.24515563       0.20944729       0.14946871      -0.45373238
Cu       3.79635520       1.47240246       4.90807696       0.16085942      -0.10495424       0.64898081
Cu       4.75117652       4.94973457       7.36422132      -0.34397005      -0.58983219       0.30349397
Cu       1.51937537       3.05601165      -0.35934752      -0.98021406       2.32281057      -1.28785311
Cu       3.33175098       6.64749556       6.49306576       0.68993711      -0.53660314       0.33771635
Cu       2.78972762       1.67470458       0.53264269       1.96978822      -1.69221427       0.67456161
18
Lattice="4.35752 0.0 0.0 -0.36757090979786694 4.56403249795292 0.0 -1.8413237443751251 -1.846306155935779 11.760001770040429" Properties=species:S:1:pos:R:3:REF_forces:R:3 config_type=buildcell buildcell_config_i=15 RSS_min_vol_per_atom=8.0 buildcell_type=wide gap_rss_group=ALL gap_rss_iter=0 buildcell_symmetry="1 P1 P 1 @ 0.01" vasp_rundir=run_iter_0/run_VASP_lb8tadyv REF_energy=-30.79123193 REF_stress="0.7917892950257686 0.8211507193214937 0.8017686931847658 0.004249300034474701 -0.021991475535579105 0.002119743938283287" pbc="T T T"
Li       0.13022005       2.38999573       1.92915485       0.04581664      -0.03348520      -0.50882360
Li       1.09645537       0.28985085       9.00470909      -0.38285207      -0.35994067      -0.00711587
Li       1.06291572       0.20688656       3.38704717      -0.13092918       0.20585283      -0.20378965
Li      -1.21725820       1.85920342       8.96662872       0.01580413      -0.00106615      -0.08363258
Li      -1.20594873      -0.57240148       7.43651513       0.23500232       0.13587132      -0.09869510
Li       0.54707066       2.57571170      10.77970532       0.64047197       0.40190726      -0.82530791
Li      -1.67708393       4.03235909      10.56974139      -0.04848395       0.15243431      -0.15506058
Li       0.91650398      -0.51586917       5.90933969      -0.00474472       0.54901252       0.77962268
Li       1.82952248       1.86265663       5.14363475       0.23142099       0.00647979       0.76275864
Cu       2.81707635       1.74182033      11.46176238      -0.25598495      -0.87628409      -0.48277148
Cu      -0.36439443       1.78769519       6.41516244      -1.68848651      -1.79962911      -0.02114390
Cu       0.86265551       0.49265799      11.60634650      -0.25948980      -0.03520798       0.45115614
Cu       0.92586544       2.41334686       7.93346187       1.33550554       0.88019343       1.47575638
Cu      -0.27506595       2.57694972       4.31724380       2.03673942      -1.15405891      -1.27949749
Cu       1.24019241       5.17190579       0.92979438      -0.62187536       0.74144602       1.44013776
Cu       3.71493616       0.00433951       1.53163713       0.35097370      -0.36102135       0.11136578
Cu       2.29288612       2.77453021       2.98415591      -1.26923590      -0.12248937      -1.41775478
Cu      -1.32534341      -0.34795588       4.83287772      -0.22965227       1.66998536       0.06279556
10
Lattice="4.05991 0.0 0.0 1.6217922405329375 3.924175727276641 0.0 0.8538117585692074 0.645028479621907 8.908472340502922" Properties=species:S:1:pos:R:3:REF_forces:R:3 config_type=buildcell buildcell_config_i=16 RSS_min_vol_per_atom=8.0 buildcell_type=wide gap_rss_group=ALL gap_rss_iter=0 buildcell_symmetry="1 P1 P 1 @ 0.01" vasp_rundir=run_iter_0/run_VASP_fpdveh8d REF_energy=-16.92866542 REF_stress="0.7174947419130384 0.7531291445680294 0.7394450269087337 0.01946143088421229 0.008293135586615596 -0.0006508867664535579" pbc="T T T"
Li       3.37898555       4.42188387       1.85452014      -0.42831149       0.34139916       0.17716465
Li       3.35850285       0.11007857       7.09530735      -0.21417926       0.10734856      -0.05705664
Li       5.44340674       0.90359682       5.40061280      -0.28236672      -0.02128396       0.14191461
Li       1.30428454       3.69600909       3.41433913       0.08485923      -0.61630580      -0.17389101
Li       3.29195323       2.09327408       4.28174439       0.06731615       0.46408450       0.29723779
Cu       3.31425383      -0.88890479       0.50012352       0.17375079       0.33195357      -0.39176119
Cu       3.07422901       5.21559551       8.58633843       2.35934830       0.05823807      -1.26588499
Cu       2.71102383       2.57610226       6.70244968       0.33015872      -0.02128775       0.18662295
Cu       3.74747427       2.01094702       1.94844849      -0.26425947      -1.04017482       2.63623800
Cu       2.87842092       1.90202399      -0.02916937      -1.82631625       0.39602847      -1.55058418
16
Lattice="2.97545 0.0 0.0 0.0 9.14172 0.0 0.0 0.0 11.20703" Properties=species:S:1:pos:R:3:REF_forces:R:3 config_type=buildcell buildcell_config_i=17 RSS_min_vol_per_atom=8.0 buildcell_type=wide gap_rss_group=ALL gap_rss_iter=0 buildcell_symmetry="1 P1 P 1 @ 0.01" vasp_rundir=run_iter_0/run_VASP_imsnnf_c REF_energy=-23.73166874 REF_stress="0.6269771072108258 0.5525133754779105 0.5971629432292362 -0.0008827932773689866 0.000751436036682929 0.0018071979096500872" pbc="T T T"
Li       0.79351011       8.00130639       3.89915891      -0.28990573      -0.09815229      -0.20944452
Li       0.89614168       1.10317184       7.34922625      -0.06198700       0.60276264       0.13115378
Li       2.38953259       8.09187630       7.32569251       0.02802646      -0.81141284      -0.09192952
Li       2.28586731       1.08024541       3.78781708       0.08226783       0.52172786      -0.02013700
Li       0.76808253       5.50611915       1.59663316       0.03185670       0.97015598       0.05498592
Li       0.68765755       3.34298971       9.46932979       0.12134245      -0.45981422      -0.05859590
Li       2.14076129       5.55621681       9.58446993      -0.18489044       0.46299992      -0.06621995
Li       2.20898607       3.45102564       1.62665013      -0.15849153      -0.67355597       0.04024080
Cu       1.39444937       5.73129592       6.64869179      -0.24880470       1.30182441       1.58399530
Cu       1.48645744       3.36145247       4.41406948      -0.24273017       0.27915020      -1.47430953
Cu       1.46639170       5.90543148       4.44188913       0.45001108      -0.68248883      -1.42331602
Cu       1.42079127       3.50377083       6.64170678       0.19412716      -1.16287944       1.46753442
Cu       3.03517372       7.79640933       9.91393525       0.55203328       0.32642611      -0.82195657
Cu       3.03397348       1.22319032       1.17741297       0.61011593      -0.07625368       1.40471028
Cu      -0.05040219       7.96226597       1.01242394      -0.34683791       0.00768865       0.99763410
Cu      -0.11082178       1.10327978      10.15246608      -0.53613342      -0.50817850      -1.51434560
6
Lattice="4.50817 0.0 0.0 0.691257222857554 4.856218300359577 0.0 1.5357720054070962 1.31271882523325 5.245554139048238" Properties=species:S:1:pos:R:3:REF_forces:R:3 config_type=buildcell buildcell_config_i=23 RSS_min_vol_per_atom=10.0 buildcell_type=narrow_even gap_rss_group=ALL gap_rss_iter=0 buildcell_symmetry="1 P1 P 1 @ 0.01" vasp_rundir=run_iter_0/run_VASP_eh0pa5be REF_energy=-10.61649686 REF_stress="-0.019942934527434095 -0.01616948850312421 0.0033167300976758834 -0.006190899555785105 -0.00426338090402873 -6.193355258826157e-05" pbc="T T T"
Li       3.62823918       2.11757760       2.28164127      -0.25073025      -0.01747473      -0.10469806
Li       1.47679830       0.66775224       2.56055204      -0.22348581       0.02113227       0.29981040
Li       0.20508380       1.67320492      -0.44085498      -0.12947653      -0.28587063      -0.38659952
Li       4.32426884       4.34632811       3.47358622      -0.12256626      -0.34028408       0.02238453
Li       4.55248088       6.17293046       5.17494885       0.51213701       0.20846033       0.32456833
Li       1.26824228       3.18454083       1.31217608       0.21412184       0.41403683      -0.15546567
22
Lattice="8.06169 0.0 0.0 0.0 8.76812 0.0 0.0 -4.384059999999998 7.593414663430414" Properties=species:S:1:pos:R:3:REF_forces:R:3 config_type=buildcell buildcell_config_i=31 RSS_min_vol_per_atom=10.0 buildcell_type=wide_even gap_rss_group=ALL gap_rss_iter=0 buildcell_symmetry="1 P1 P 1 @ 0.01" vasp_rundir=run_iter_0/run_VASP_v1hy2yw8 REF_energy=-35.79771411 REF_stress="0.005740304377558423 -0.005114113040738736 -0.005440531048098539 0.0006629071952564596 -0.00022881340623791483 -0.0018107866775333241" pbc="T T T"
Li       3.43434375       7.00228729      -0.04734640      -0.13220174       0.34705199      -0.37563192
Li       3.53697532       5.33374202       6.10877740      -0.12636343       0.18786430       0.44104906
Li       3.54259361       0.85565108       1.52639213      -0.20596884      -0.67340081      -0.04465664
Li       7.12538519      -0.44397645       1.46078134       0.06897311      -0.20176524       0.23988168
Li       7.09532542       3.08614262       6.32288323       0.16434908       0.10976342      -0.23821631
Li       7.01490044      -2.98111776       7.21552397      -0.12075757       0.22082165      -0.19269527
Li       1.70187318       4.51680664       4.21228335       0.13382434       0.34937397       0.30667697
Li       1.77009796       2.92483840       1.85864508       0.23899793      -0.48111741       0.07820977
Li       1.73823731       5.58714836       1.41147769      -0.00723010       0.20403809      -0.17787328
Li       5.82754731       1.56491910       2.72643449      -0.04129069      -0.13996906       0.11248308
Li       5.72980685       5.75443339       0.02812488       0.03253016      -0.21645310       0.23852761
Li       5.68420641       6.04024596       4.68625184       0.15346098       0.05730729       0.17741481
Li      -0.08556987       3.80796123       0.28584507      -0.30481724       0.28578349      -0.16557086
Li      -0.08677011       6.47742916       3.27530856      -0.00049170      -0.03636033       0.16474050
Li      -0.11802106       2.71455889       3.76872705      -0.14479121      -0.12781125      -0.12676192
Li       4.29647368       3.77001265       4.08855921       0.31124306      -0.49875617       0.03760649
Li       4.40281993       3.23453149       1.34580336       0.29175951       0.51158613      -0.54884192
Li       4.32994987       5.85757708       2.35833958      -0.02740588       0.29382673       0.15712124
Li       3.32071472      -0.53606088       6.40461159      -0.03296405      -0.12362249       0.85817130
Li       3.18669353      -0.88745392       3.90180894      -0.12970717      -0.58413977      -0.65986296
Li       3.16969734       1.53120326       4.78340806      -0.17326659       0.58347597      -0.15095468
Li       6.13651439       0.08125214       5.19790070       0.05211805      -0.06749740      -0.13081677
18
Lattice="8.26641 0.0 0.0 -2.82776950942477 7.767705831818531 0.0 -2.82776950942477 -3.8079195651436604 6.770302982515902" Properties=species:S:1:pos:R:3:REF_forces:R:3 config_type=buildcell buildcell_config_i=35 RSS_min_vol_per_atom=10.0 buildcell_type=wide_even gap_rss_group=ALL gap_rss_iter=0 buildcell_symmetry="1 P1 P 1 @ 0.01" vasp_rundir=run_iter_0/run_VASP_9550f06n REF_energy=-28.62791024 REF_stress="-0.0062725386324648585 -0.008731233609572342 -0.009711844492045157 -0.003443016917351838 0.003257650762244852 0.00230064474924087" pbc="T T T"
Li       6.68568244      -1.14370802       1.27182451      -0.19992961      -0.12097287      -0.39064118
Li       0.21989245       2.20068467       0.64038540       0.17531099      -0.08653231      -0.40392190
Li       6.35753063       1.05941497      -0.44001972      -0.17219091      -0.22950248      -0.02933570
Li       0.55824713       0.06520400       2.21735473       0.16053839      -0.01924519       0.08008087
Li      -4.00094381       4.89833983       5.39075555       0.00205515       0.00061777       0.46731917
Li       2.48705277       1.63440315       6.13792862      -0.32759797       0.20700460      -0.00003548
Li      -3.67954078       2.83588440       7.30994014       0.12011481       0.07078856       0.02384223
Li       2.08430222       3.85499332       4.36390046      -0.18249845       0.16234116       0.40047869
Li       3.99681977      -0.36879057       5.39233901       0.18625465       0.35116065      -0.47360976
Li      -0.13203687      -2.39795798       3.09758267       0.25210712      -0.50295652      -0.15897980
Li       2.07866233       2.44030844       2.36742696       0.81169986      -0.49212310      -0.00859991
Li       1.63704729       6.68502233      -0.62697362      -0.06351292      -0.21116526      -0.32942541
Li      -1.41950070       4.14370209       1.13004601      -0.25307861      -0.33106280       0.59293138
Li       2.80016377       6.37152704       3.66068777      -0.03504139       0.41907414      -0.05359768
Li       0.46047316       1.67459528       4.25367410      -0.56412087      -0.02875539       0.10226973
Li       0.79606818      -2.68904545       7.38090446       0.25042105       0.17586326       0.38417081
Li       1.33979732       4.69749547       1.72498414      -0.07734440       0.62434902      -0.22454118
Li       1.26692726      -0.98170542       5.13889487      -0.08318691       0.01111677       0.02159509
20
Lattice="7.5397 0.0 0.0 0.7517047627320198 7.502134099020491 0.0 0.7517047627320198 0.6801489125504727 7.471239087088727" Properties=species:S:1:pos:R:3:REF_forces:R:3 config_type=buildcell buildcell_config_i=37 RSS_min_vol_per_atom=10.0 buildcell_type=wide_even gap_rss_group=ALL gap_rss_iter=0 buildcell_symmetry="1 P1 P 1 @ 0.01" vasp_rundir=run_iter_0/run_VASP_hbo3ig3h REF_energy=-33.29295677 REF_stress="-0.011693729965080266 -0.012730320955386145 -0.012165042609514528 0.0023944967990385496 0.0034244600493923273 -0.0004935764694938183" pbc="T T T"
Li       6.91133737       1.47387104       0.31061371      -0.00340706       0.06723707      -0.45412183
Li       1.21422435       6.76620622       1.43586872      -0.39995064       0.13974946       0.13159068
Li       2.32231150       0.92711298       6.58241375      -0.10631081      -0.22750409       0.32793168
Li       5.09861073       4.31666420       2.21855953       0.34115623       0.30999415      -0.35417169
Li       3.16526361       4.56355446       3.96718806      -0.26599116       0.24682684       0.38383015
Li       4.78795886       2.57013100       4.39141946       0.71048885      -0.00532848       0.27008198
Li       3.53673999       6.52003404       2.43717730      -0.05324042       0.52608086      -0.02984675
Li       3.20980638       3.32857867       6.28368884      -0.07501504      -0.26866688       0.33623424
Li       6.93530134       2.55929853       2.61044602       0.42691057       0.01760294      -0.08697529
Li       8.14228756       4.86669759       3.32030739      -0.15235077       0.14860464      -0.09034195
Li       4.51136775       7.87246622       4.60145654      -0.13172944      -0.45470609      -0.02854102
Li       5.60447999       4.10452400       7.11620298       0.28602434      -0.47646128       0.16261365
Li       1.22772009       2.36825412       4.64295058       0.06884983       0.25123224       0.08564303
Li       5.10372770       0.77730862       2.13782339      -0.15084466      -0.19852553      -0.02239963
Li       2.66020109       4.81168113       0.36044982       0.08061636       0.24286007       0.09545791
Li       8.26687798       7.68679090       4.08119440      -0.12643562      -0.23352437      -0.32618198
Li       5.50270052       7.65639317       7.37299793       0.15976750      -0.03718808      -0.03055335
Li       8.48719918       4.57376287       7.19610533      -0.26564947       0.30706798      -0.04509784
Li       8.10057462       7.32931164       6.52343440       0.00203935      -0.19173870       0.23787437
Li       6.25935181       5.72461931       5.29445428      -0.34492792      -0.16361274      -0.56302637
8
Lattice="3.85956 0.0 0.0 1.1279225405206772 3.9234804516762134 0.0 0.9817504732680369 0.3421785992499419 9.981530052820226" Properties=species:S:1:pos:R:3:REF_forces:R:3 config_type=buildcell buildcell_config_i=38 RSS_min_vol_per_atom=10.0 buildcell_type=wide_even gap_rss_group=ALL gap_rss_iter=0 buildcell_symmetry="1 P1 P 1 @ 0.01" vasp_rundir=run_iter_0/run_VASP_3vj1n9o9 REF_energy=-13.90772515 REF_stress="0.0018340514596529058 -0.010274738200698628 -0.026331692375422787 -0.001821277044064579 -0.005165006019041768 0.015654216061071112" pbc="T T T"
Li       3.46031548       1.29444852       6.87301579       0.29098327       0.12189308      -0.35179957
Li       1.80503450      -0.08092970       1.83379870      -0.31001273      -0.05907659       0.09478755
Li       2.65880420       0.78376984       4.29132197      -0.36564493      -0.41966374       0.22813179
Li       1.05062551       2.21410536       0.57422030      -0.10324959      -0.23995296      -0.01696668
Li       2.95034067       0.50002889      -0.60229647       0.20981941       0.46790778       0.36603756
Li       1.71638757       2.99857231       5.59510862       0.08574257       0.14979451       0.16338915
Li       0.48025837       2.13453650       3.43358853       0.23965385       0.13538048      -0.41731141
Li       3.08346028       3.52644379       8.18454676      -0.04729182      -0.15628254      -0.06626839
8
Lattice="4.3199 0.0 0.0 0.0 6.04927 0.0 0.0 -3.0246349999999986 5.238821494351092" Properties=species:S:1:pos:R:3:REF_forces:R:3 config_type=buildcell buildcell_config_i=39 RSS_min_vol_per_atom=10.0 buildcell_type=wide_even gap_rss_group=ALL gap_rss_iter=0 buildcell_symmetry="1 P1 P 1 @ 0.01" vasp_rundir=run_iter_0/run_VASP_nwqdct6d REF_energy=-14.22496924 REF_stress="-0.037562997311713114 -0.018476620882920326 -0.01340042937293621 0.0015279408763171486 -6.44180352278924e-05 -0.0006332614062820309" pbc="T T T"
Li       0.09272743       2.86109579       3.42415999      -0.08357266       0.27589670       0.12537019
Li       0.19535900       1.67907548       0.78664641      -0.49403029      -0.48557706       0.37756493
Li       0.20097729       4.57323543       1.02242281      -0.44487911      -0.04994906      -0.44804674
Li       2.25726202       1.42551519       4.12287827      -0.16715751       0.07476367       0.25761439
Li       2.22720224      -0.34104080       1.70693857       0.20883251       0.65294346       0.02868088
Li       2.14677726      -1.42342729       4.46018612       0.22035181      -0.46022016      -0.25687613
Li      -0.04775072      -0.14123067       3.63911271       0.28476783       0.12373035      -0.25925297
Li       2.18042406       3.03138812       1.60379884       0.47568743      -0.13158790       0.17494544
16
Lattice="5.44059 0.0 0.0 1.7694880687463834 6.278950960547805 0.0 2.3884786692055595 1.1515717815242312 6.619511400726427" Properties=species:S:1:pos:R:3:REF_forces:R:3 config_type=buildcell buildcell_config_i=43 RSS_min_vol_per_atom=7.0 buildcell_type=narrow gap_rss_group=ALL gap_rss_iter=0 buildcell_symmetry="1 P1 P 1 @ 0.01" vasp_rundir=run_iter_0/run_VASP_dtnh7c68 REF_energy=-24.44082836 REF_stress="1.1369964646222355 1.1522337188506804 1.131588282903997 0.01254584111954107 0.010350888094796496 0.01096637249095977" pbc="T T T"
Li       6.04354084       5.72051951       0.81012253       0.62812806      -0.48902234      -0.24061267
Li       6.17104633       2.55496345       1.25016706      -0.40564639      -0.24213289       0.48802290
Li       7.13376714       1.03332752       4.43537262      -0.58528371      -0.29727084      -0.33097568
Li       7.09640475       5.36994102       5.49225751       0.03426558       0.82242088      -0.26900601
Cu       3.81140815       3.51332582       1.14386359       1.14359533       0.07945854       1.21082021
Cu       4.27130852       3.54606322       4.48497574       1.36995500       1.69934720      -0.39137117
Cu       2.98326582       1.01714341      -0.53176757       1.68453383       1.06387128      -3.87177853
Cu       5.29134423       7.17760096       5.82609832      -0.55736694      -0.20185198       1.07801507
Cu       4.36635586       5.47825356       2.57637611       0.83101430      -2.04386755       1.37083524