14
Lattice="2.8706 0.0 0.0 -0.7161127977980166 6.733869574503942 0.0 0.0 0.0 11.18433" Properties=species:S:1:pos:R:3:REF_forces:R:3 config_type=buildcell buildcell_config_i=6 RSS_min_vol_per_atom=8.0 buildcell_type=narrow gap_rss_group=ALL gap_rss_iter=0 buildcell_symmetry="1 P1 P 1 @ 0.01" vasp_rundir=run_iter_0/run_VASP_8mz5l0un REF_energy=-22.63701328 REF_stress="0.6984666604554663 0.6669782518898681 0.6453082866692647 -0.004394572207953167 -0.0005601806619496516 -0.01630514668036779" pbc="T T T"
Li       2.20118439       1.78690187       6.10381382      -0.30036461      -0.13331181       0.04387746
Li       0.15527721       4.90972593       6.01563128       0.15923696       0.03766601       0.07001285
Li       1.59400721       5.67209550       8.17769904      -0.36923974       0.07916900       0.26446061
Li       0.77265728       1.09217578       8.17807350      -0.00471808       0.05718270       0.21238460
Li       0.73876054       1.88003854       0.59210033      -0.24554972      -0.09278583      -0.18267867
Li       1.38369414       4.56121990       0.79601685       0.10617339      -0.16337544      -0.27704658
Li       2.42174119       3.22570442       4.01609476      -0.14227891       0.49084963      -0.76644170
Cu       2.12963645       0.90222482       2.28353162      -0.30559117       1.61682159       0.08451049
Cu      -0.05216515       5.84948984       2.31090708       0.65814368      -1.49181725      -0.55770190
Cu       1.47488960       5.77740376       4.18525170      -0.41747215      -0.17814699       0.73817357
Cu       0.65699675       1.08162976       4.21307135       0.46615559      -0.13209211       0.19531456
Cu       2.04488837       2.35763373       9.79962984      -1.26851264      -2.79663867       1.42677374
Cu       0.02471410       4.26252332       9.78889560       1.72356060       3.33491843       2.91815020
Cu      -0.33837028       3.44078145       7.95591742      -0.05954321      -0.62843923      -4.16978923
22
Lattice="7.09792 0.0 0.0 1.8550828200205645 6.876468935497677 0.0 3.346718510584957 1.0194585487663868 6.785793340108078" Properties=species:S:1:pos:R:3:REF_forces:R:3 config_type=buildcell buildcell_config_i=12 RSS_min_vol_per_atom=8.0 buildcell_type=wide gap_rss_group=ALL gap_rss_iter=0 buildcell_symmetry="1 P1 P 1 @ 0.01" vasp_rundir=run_iter_0/run_VASP_9fnj6k0j REF_energy=-36.71018387 REF_stress="0.7134984675966632 0.7018773283737584 0.7109230813586966 -0.009766048185241375 -0.006335901172325982 -0.00408192947961908" pbc="T T T"
Li       5.37962545       4.42710842       0.98665892      -0.46658033       0.01374051      -0.25416000
Li      10.23373645       3.06861914       4.81848939      -0.08427480       0.00308774       0.18635981
Li       2.10664112       0.34572288       3.00334470      -0.29162565      -0.71097312      -0.00833610
Li       3.83034637       0.19755644       1.01624580      -0.13697998      -0.22867233       0.03406513
Li       4.39620753       2.16604046       2.47311465       0.09308367       0.46332524       0.50298404
Li       2.68974671       4.75292604       1.61839447       0.10747799       0.31023623       0.40275168
Li       6.63884888       5.50176874       3.18431620       0.80082602       1.41803745      -0.81276417
Li       7.85429693       5.98628170      -0.05187158       0.06860817       0.63651902       0.10752030
Li       3.90847198       0.58720452       4.70700075       0.25551657      -0.01658149       0.25723074
Li       6.56612494       0.66444036       2.15997506      -0.05606912       0.20919123       0.38105337
Li      10.97252801       4.49693092       7.05351865       0.36514494      -0.75781038       0.25333122
Cu       3.04377576       7.48207329       0.41308944       0.33436912       0.03204827      -0.33500802
Cu       2.97652372       2.36253351       0.46191682      -1.30695632       1.04428422       1.52250913
Cu      10.48169360       5.65975535       4.97555402      -1.01328917      -0.00010967      -0.31488825
Cu       7.72580552       3.86794421       4.36958682       2.32327108      -0.05532174       1.88486846
Cu       6.09903347       2.32293482       5.32916893      -0.18536695       0.43495671      -1.90724164
Cu       9.01949912       2.55645551       2.65643668      -0.64446430       0.57406371      -0.39373224
Cu       5.21180723       2.02477714       0.12913210       1.35145569      -0.23710577      -0.55640378
Cu       5.25347884       4.34664827       4.30475955      -2.08403753      -0.85899245      -0.77445844
Cu       4.69891590       6.03395319      -0.88514508       0.58049110      -1.39009911      -0.12621774
Cu       6.49414378       5.29033389       5.77450864       0.43901445       0.79090285       2.03970574
Cu       6.61003969       3.26726993       2.71207845      -0.44961463      -1.67472711      -2.08916925
24
Lattice="4.95642 0.0 0.0 -2.478209999999999 4.292385631825267 0.0 0.0 0.0 15.93041" Properties=species:S:1:pos:R:3:REF_forces:R:3 config_type=buildcell buildcell_config_i=13 RSS_min_vol_per_atom=8.0 buildcell_type=wide gap_rss_group=ALL gap_rss_iter=0 buildcell_symmetry="1 P1 P 1 @ 0.01" vasp_rundir=run_iter_0/run_VASP_2dkj4h9o REF_energy=-41.38507679 REF_stress="0.777002821292198 0.7809429860705656 0.7579260975070646 -0.001407660828850362 -0.002792996047942332 -0.010358168908814478" pbc="T T T"
Li      -0.40961351       2.26203206       2.10847637      -0.28801457      -0.12967620      -0.34727800
Li      -0.12531329       3.52879346      12.64056610      -0.83212214      -0.03676624      -0.29517186
Li       0.89482248       2.83344745       7.30689622      -0.49358257       0.08774232      -0.32442324
Li      -1.13218307       2.55866071      14.97680886       0.29498436       0.19463137       0.18283956
Li       0.39520409       3.82604274       9.54075233      -0.21473440       0.53427464       0.27878164
Li       0.75920246       1.86111490       4.43453271       0.14746526       0.64768273       0.13193150
Li       2.09748899       3.95538342      11.85511833       0.58613111       0.51739838      -1.29328724
Li       4.90925828       0.35571562       6.25594090       0.23080164      -0.34655939       0.08393399
Li       0.26006442      -0.14209869       0.97318023      -0.10882445      -0.01359137      -0.07338163
Li       3.33120407       2.20467519       5.40198371      -0.33898319       0.29123912       0.07485487
Li       2.73254377       0.49287297      16.05007564       0.30408913      -0.44105850       0.12301057
Li       1.24251021       1.80225591      10.61920486       0.22218567      -0.78641258       0.22165175
Cu       0.04108551       0.53438712       8.73587960      -0.70202716       1.47349777       0.38915349
Cu      -1.83611821       3.98356225       3.57569730      -0.91695330      -0.57019370      -0.98017245
Cu       1.82404036       3.91459117      14.03098214      -0.62255367      -0.08878414       0.52607799
Cu       0.61532061       1.31698704      13.50691953       0.39237157       0.82734548      -1.02392749
Cu      -1.60706396       2.83933254       8.12347797       1.45643899       0.48045256      -0.47523961
Cu       0.91561253       4.13839158       2.84210107      -0.18109379       0.42411215      -1.37940391
Cu       1.32892175       2.27677103      15.44279573      -0.21296164      -0.48866001       2.43180618
Cu      -1.23095180       2.17209765      10.31413586      -0.12228453      -0.32797962       1.15461065
Cu      -0.07370865       4.24359104       4.79581171       1.01756968       0.28301699       3.08743914
Cu       2.87857554       1.70690221      12.99216422       0.44012561      -0.26546153      -0.82190705
Cu       2.37976477       0.98340003       7.58256768      -0.57647209      -2.06056021      -0.83850709
Cu       1.98495605       1.81982882       2.39007001       0.51844449      -0.20569000      -0.83339177
14
Lattice="3.98856 0.0 0.0 0.0 8.77589 0.0 0.0 -4.242571221212695 7.682241516968718" Properties=species:S:1:pos:R:3:REF_forces:R:3 config_type=buildcell buildcell_config_i=27 RSS_min_vol_per_atom=10.0 buildcell_type=narrow_even gap_rss_group=ALL gap_rss_iter=0 buildcell_symmetry="1 P1 P 1 @ 0.01" vasp_rundir=run_iter_0/run_VASP_9hci0dxa REF_energy=-23.50468514 REF_stress="-0.000492424723814819 -0.021209287215183913 -0.026408804585397683 -0.007401888341173329 0.003881435391870125 0.000939083126333933" pbc="T T T"
Li       0.91850861      -1.29364910       7.98678388      -0.19555263      -0.08358344      -0.17283398
Li       3.27202579       7.53007173       2.68603299      -0.15540975      -0.07643179       0.07585844
Li       1.02675848       1.12099993       6.50362001      -0.34290685      -0.32490444       0.09571677
Li       3.17397881       5.18306617       4.03432130      -0.12140218       0.06791116      -0.07200148
Li       3.13881048       2.82674939       6.96271422       0.11543643       0.12279143       0.19996250
Li       0.81771699       4.68569204       6.12279772      -0.07436514      -0.01689391      -0.00436263
Li       3.02381185       2.37908539       2.39681710       0.09431692       0.03785799      -0.26327227
Li       0.85136812       0.75817085       3.15161042       0.14956800       0.03795322       0.03923074
Li       2.80903032      -2.18031576       6.26169886       0.05276917       0.27019548      -0.00232610
Li       1.16266121       6.58146293       1.13528175       0.09030976       0.02424459       0.08150546
Li       2.80329793       0.31752400       5.00422216       0.34620656      -0.37506820      -0.08089685
Li       1.01932032       4.40007709       2.41359309       0.13314138      -0.00853586       0.17624741
Li       2.01516636       0.30656951       0.71878860       0.16854671       0.20228627       0.11526330
Li       2.01396612       2.84304257       4.70986479      -0.26065838       0.12217749      -0.18809132
18
Lattice="3.82691 0.0 0.0 -0.17864865109024342 10.377072332385644 0.0 -0.23964577192449665 -2.953667922702653 10.65986512655747" Properties=species:S:1:pos:R:3:REF_forces:R:3 config_type=buildcell buildcell_config_i=30 RSS_min_vol_per_atom=10.0 buildcell_type=wide_even gap_rss_group=ALL gap_rss_iter=0 buildcell_symmetry="1 P1 P 1 @ 0.01" vasp_rundir=run_iter_0/run_VASP_l5dn7nz8 REF_energy=-29.86437754 REF_stress="0.01519837521274109 -0.013325995588014014 -0.004866372426597327 0.0031958115500670277 0.003782789975410931 -0.001980573982171542" pbc="T T T"
Li       2.49253708       0.58255058       7.22421676       0.09798346       0.17263976      -0.46245072
Li       0.03897311       9.61752043       1.21745643      -0.53809406      -0.25565817       0.15389606
Li       0.54626592       4.88876720       1.06183843      -0.12239002      -0.76431287      -0.31854009
Li      -0.14041335       5.70498227       3.92126974      -0.00066896       0.09994746       0.05063810
Li       0.22508156       0.48039537       9.17151213      -0.18191551       0.27513415       0.52445329
Li       2.24556464       6.50845362       1.77017452       0.24169105       0.34329314       0.08630674
Li       2.21225980       2.06819375       5.14535726      -0.07705031       0.14016227      -0.15228854
Li       3.38173432       4.32005213       6.14222242       0.10246303       0.04987785       0.46454571
Li       1.96292199       1.21636975       0.97822545       0.25154439       0.67858514       0.30547773
Li       1.33395618       7.93840409       3.79547404       0.22740038      -0.08503942       0.08237702
Li       1.53799968       6.70071099       9.67069342      -0.04564331      -0.56088434      -0.20662552
Li       1.99272212      -1.15375836       8.99919659       0.08399379      -0.34742198       0.16040927
Li       1.28439760       2.83120775       8.42841862       0.22597849       0.24240983      -0.00030558
Li       2.54361078       7.52063891       7.12483002       0.10810221      -0.58491187      -0.26098127
Li       0.28479700       3.14494388       3.10612600      -0.00710025      -0.32930364      -0.01740727
Li       0.64353371      -1.25529776       6.24241216      -0.10533835       0.35490631      -0.12122550
Li       1.20172063       0.10750078       3.51720892      -0.04750711       0.30082607       0.20900175
Li       0.34985269       7.24529483       0.02957925      -0.21344892       0.26975032      -0.49728120
24
Lattice="3.6285 0.0 0.0 0.8286068099400982 8.926012481876826 0.0 0.6827976164775277 2.730527889565011 10.356767317427781" Properties=species:S:1:pos:R:3:REF_forces:R:3 config_type=buildcell buildcell_config_i=47 RSS_min_vol_per_atom=7.0 buildcell_type=narrow gap_rss_group=ALL gap_rss_iter=0 buildcell_symmetry="1 P1 P 1 @ 0.01" vasp_rundir=run_iter_0/run_VASP_iow8qn1e REF_energy=-35.96267459 REF_stress="1.1219285798730838 1.1524771235570885 1.1409859846583028 -0.008753420620379085 -0.012120738499044763 0.02260499133479804" pbc="T T T"
Li       2.52368751       5.43735913       1.53176145       0.00316300       0.14443877      -0.42790960
Li       1.76655648       1.27317292       0.77244898      -0.33867142       0.47466227       0.37075543
Li       2.45927406       2.94310265       3.77090291      -0.82769387       0.23187646       0.08380535
Li       0.54140513       4.02597541       5.36625579      -0.16346622       0.13567155      -0.05372407
Li       4.49403820       9.38215636       6.99161973      -0.46751691       0.95476150       0.83455899
Li       2.25858691       9.42701995       9.67169121      -0.02122420       0.21164228      -0.46789368
Cu       1.45021521       7.92046453       3.87396958       0.93771816       0.65880228      -0.58330135
Cu       3.63335086       5.40176295       9.34010677       0.05738787      -0.13076921       1.21413052
Cu       3.30081591       6.83670401       4.29823715      -1.48765073      -1.21904946       0.60431890
Cu       1.60507080       6.77532876      10.41202631       0.32037022       1.00346578       1.59319099
Cu       0.42690276       3.28268133       2.11209986      -0.20970338      -2.31653882       0.17350777
Cu       4.18250153       5.22128113       3.03635786       1.35229138       0.77702853       0.56423611
Cu       0.64513684       6.97650514       6.36956590      -1.25798937       1.19367792       1.21187201
Cu       4.13096478       2.95423352       9.88786520      -1.41808940      -1.08235101       0.87748049
Cu       4.03776238       1.34856486       4.66063123       0.44926821       0.49499566       0.38810458
Cu       1.67596802       4.18041899       8.60629931       3.17465496       0.75763760      -1.35781174
Cu       2.79146187       0.40879424       2.93482512      -1.39131822       0.42623175      -1.11734649
Cu       2.26291152       5.58627997       6.14980342       1.69239417      -1.37251277      -0.42367789
Cu       3.99002866       7.86854492       8.71635704      -1.63364126       0.77039187       0.06164764
Cu       2.04175364       6.51925868       8.31810186       0.37570505       0.42753759      -3.10692158
Cu       1.32910863       8.03210180       1.32265092       0.20199487      -0.64738691       2.00044856
Cu       2.53047121       8.70716322       5.85730296       1.41478048      -0.82341809      -0.08199271
Cu       3.55498960       3.19924210       7.68414121      -0.80530460      -0.56179722      -1.44265887
Cu       1.76154024       2.24092954       6.58516145       0.04254118      -0.50899830      -0.91481935
8
Lattice="2.83599 0.0 0.0 -0.4296127339611366 7.712443728081161 0.0 -0.4296127339611366 -0.36806831520822014 7.703655883680048" Properties=species:S:1:pos:R:3:REF_forces:R:3 config_type=buildcell buildcell_config_i=73 RSS_min_vol_per_atom=9.0 buildcell_type=wide gap_rss_group=ALL gap_rss_iter=0 buildcell_symmetry="1 P1 P 1 @ 0.01" vasp_rundir=run_iter_0/run_VASP_3qxbwwb9 REF_energy=-12.91482379 REF_stress="0.2613351939881209 0.2610617035474845 0.2595117347564282 -0.005615141341600583 -0.0016113998522278275 0.0020203722785467324" pbc="T T T"
Li       0.53545149       5.07261918       6.69142437       0.13706371      -0.07050387      -0.77803187
Li       1.64328744       0.94460051       2.28334206      -0.15386103       0.22184172      -0.43379799
Li       2.44448308       0.73032210       4.82069304       0.02606086      -0.61467527      -0.06036372
Li      -0.25554126       2.46713089       6.77194594      -0.19801050       0.13361271       0.56835756
Li      -0.40541651       6.78257630       0.53160388      -0.01562944       0.31224694       0.66729101
Li       2.35014851       3.25372995       4.18563504      -0.01907869       0.11863382      -0.00756346
Cu      -0.52041514       5.02323155       2.57571478      -0.05141115       0.40208078      -0.39272155
Cu       0.96580464       0.39037171       6.84455079       0.27486624      -0.50323683       0.43683003
16
Lattice="5.0153 0.0 0.0 0.0 5.63333 0.0 -0.3333179423684085 0.0 7.025046964383604" Properties=species:S:1:pos:R:3:REF_forces:R:3 config_type=buildcell buildcell_config_i=80 RSS_min_vol_per_atom=6.0 buildcell_type=narrow_even gap_rss_group=ALL gap_rss_iter=0 buildcell_symmetry="1 P1 P 1 @ 0.01" vasp_rundir=run_iter_0/run_VASP_2cpzsj50 REF_energy=-22.14335417 REF_stress="1.683515531298408 1.7285277045530587 1.6871519083397177 -0.00567723629961484 0.02917263236974579 0.007929602576310419" pbc="T T T"
Cu       0.67367380       3.38724980       1.22126019      -0.56900827       0.60983330      -0.89483958
Cu       0.60964640       2.20883843       4.64560112      -2.34106627      -1.40105996       0.90916848
Cu       0.69156155       4.53180448       3.46009299      -1.04832169      -0.49071054      -0.26320263
Cu       0.75455524       1.13192722      -0.05205602      -0.32611467      -0.08305016       1.51218516
Cu      -0.33331936       4.51691962       5.45473452      -0.13567539       1.81119068       1.83032874
Cu      -0.24708537       0.82379924       2.14612755      -0.20527380      -0.58956688       0.20585403
Cu       2.99592436       4.67849186       3.98770320      -0.41525459      -0.03758903      -1.44246029
Cu       3.23080811       0.82036059       0.18614002       0.36012858       1.29415223       1.72180979
Cu       3.90493529       2.91663712       2.79003575       1.00780064       0.67313489      -1.51560277
Cu       3.83028439       2.66772127       6.38848922       0.41323379       1.15382949       1.07684945
Cu       3.26637219       1.56120022       4.52816944       0.40102283      -1.14457141      -0.44339727
Cu       3.38743073       4.33961209       0.89491131       2.07290060      -2.67865525      -0.80761985
Cu       1.90521481       5.37045255       1.88075023      -0.82742933       1.98747215       0.23206988
Cu       1.73735561       0.14075710       5.54322915      -1.01032769      -1.34271163      -1.49175052
Cu       1.58206888       3.37839848       6.13834810       1.66102873       1.01297602       1.45939563
Cu       1.68830826       2.17875728       2.87938904       0.96235654      -0.77467391      -2.08878824
20
Lattice="5.07709 0.0 0.0 -0.7597787746360708 6.06357444035385 0.0 -1.3429952959483062 -1.6621529839134688 8.212932277666015" Properties=species:S:1:pos:R:3:REF_forces:R:3 config_type=buildcell buildcell_config_i=84 RSS_min_vol_per_atom=6.0 buildcell_type=narrow_even gap_rss_group=ALL gap_rss_iter=0 buildcell_symmetry="1 P1 P 1 @ 0.01" vasp_rundir=run_iter_0/run_VASP_lxph22_h REF_energy=-24.95870627 REF_stress="1.6463844886108079 1.6555343802330438 1.6229097804533388 -0.0027948494203866993 -0.006276635359326797 -0.008385851101292016" pbc="T T T"
Cu       1.98136994      -0.13986695       4.40649197      -1.38562434       2.08092443      -0.89220116
Cu       3.15607475      -0.39446142       1.99647240      -1.65519912      -0.79406747      -0.80955986
Cu       3.00896290       1.69730442       3.11402376      -0.64551227      -1.85551521       1.86325022
Cu       3.56656388       2.65797140       7.06965525      -1.83584559      -0.13750887       0.35749656
Cu       1.51397165       0.07270421       0.23652374       0.35864647      -0.13767934       4.78717811
Cu      -0.06770030       5.36108000       2.43826807       2.12715147       1.14556137      -1.16466834
Cu      -0.70973762       4.50336933       6.46866989       0.82425028       1.96015082      -4.97921624
Cu      -0.40161118      -0.28282223       4.24466582      -1.25140631      -0.18962181       0.98521718
Cu      -0.49691466       1.19572784       1.44644927       2.54436141      -0.34688531       0.13915339
Cu       3.25232063       3.82962248       3.03824256       0.36537531       1.14645165       1.05947728
Cu      -0.78464537       0.86023427       8.08913431       2.41039417      -1.06434018       0.27226654
Cu       2.08222802       4.00738513       5.00311800       1.79162111      -1.90821925       1.78991678
Cu       1.24305005       2.65006029       6.82487456       0.20534289       2.71190551       1.35467525
Cu       1.16945354       3.16024881       2.43385950      -0.70393891      -0.27536086      -0.56121262
Cu       1.19681451       0.51846805       6.70253244       0.39752551      -2.82662153       1.20772270
Cu      -0.82745726       3.71024126       1.16140418       1.14704649       1.36179324      -2.06123462
Cu      -0.21683331       1.53809729       5.54099947      -1.76358798       1.04401920      -2.61205888
Cu       0.00106946       3.60796178       4.40405288      -0.88575347      -0.57565296       0.47707669
Cu       2.75795059       2.26920935       0.85093415      -3.03055903      -1.06639599      -1.26145220
Cu       3.27594197      -0.11078953       6.31036429       0.98571192      -0.27293745       0.04817322
8
Lattice="3.6591 0.0 0.0 0.0 5.49913 0.0 -1.8295503506268822 -2.749567316703526 4.578037165187372" Properties=species:S:1:pos:R:3:REF_forces:R:3 config_type=buildcell buildcell_config_i=86 RSS_min_vol_per_atom=6.0 buildcell_type=narrow_even gap_rss_group=ALL gap_rss_iter=0 buildcell_symmetry="1 P1 P 1 @ 0.01" vasp_rundir=run_iter_0/run_VASP_nyhv02rr REF_energy=-10.62112865 REF_stress="1.6786063074164164 1.7641742021604716 1.8934561865066006 0.028363880592208925 0.005594805481260959 0.008746032190260756" pbc="T T T"
Cu       2.79399652       4.79791205       1.15106703       2.03695098       0.18084671       1.15220203
Cu       1.06707809       0.66397564       1.06288448      -1.69667961      -0.49018881       2.69837170
Cu       1.07269638       3.51369945       1.03935074      -1.76569433      -1.71875861       2.56044558
Cu       2.79858110       2.01583171       1.03972520       1.60635727       0.88945272       0.84007946
Cu       0.93896947      -2.25350369       3.60698554      -1.57080044       1.04936599      -1.23309511
Cu      -0.97100258       1.96088873       3.81090206       0.59866041       0.46494292      -2.13842058
Cu      -1.00557916      -0.82862353       3.92604220       1.59812792       1.38037080      -2.85953350
Cu       0.89219854       0.69414216       3.63700251      -0.80692219      -1.75603172      -1.02004957
