8
Lattice="4.05055575875196 2.3385894576830326 4.245477179751309 -4.05055575875196 2.3385894576830326 4.245477179751309 0.0 -2.3385894576830326 2.1227385898756546" Properties=species:S:1:pos:R:3:momenta:R:3:md_forces:R:3:REF_forces:R:3 config_type=supercell_bulk_MD buildcell_config_i=2 RSS_min_vol_per_atom=8.0 buildcell_type=narrow gap_rss_group=ALL gap_rss_iter=2 buildcell_symmetry="160 R3m R 3 -2\" @ 0.01" optimize_pressure_GPa=0.39451944363800906 optimize_config_type=optimize_last_converged optimize_energy=-11.84267179366303 optimize_stress="-0.002458237876328812 -0.0024582378763310375 -0.0024481211929734356 -1.2735746942420825e-14 -2.8606406600320355e-16 -1.00939497534938e-15" optimize_virial="_JSON [[0.14828945888301703, 9.449109675287587e-11, 1.171071814840829e-10], [9.451800067930454e-11, 0.1482894574392013, 2.2838735865422386e-09], [1.1711011338861765e-10, 2.283862955268844e-09, 0.1476791846364165]]" optimize_n_steps=10 E_per_atom_dist_to_nearby=0.0 primitive_cell="_JSON [[2.02527787937598, 1.1692947288415163, 2.1227385898756546], [-2.02527787937598, 1.1692947288415163, 2.1227385898756546], [0.0, -2.3385894576830326, 2.1227385898756546]]" orig_cell="_JSON [[2.02527787937598, 1.1692947288415163, 2.1227385898756546], [-2.02527787937598, 1.1692947288415163, 2.1227385898756546], [0.0, -2.3385894576830326, 2.1227385898756546]]" supercell_n="2 2 1" MD_pressure_GPa=0.39451944363800906 MD_temperature_K=100.0 MD_time_fs=0.0 MD_step=0 md_energy=-23.685343592473956 _ConfigSet_loc=" / 0 / 0" vasp_rundir=run_iter_2/run_VASP_3754jo0t REF_energy=-14.3545046 REF_stress="0.7303484398403725 0.7325231764298131 0.7832795639617912 -0.00928912189005024 1.698938784065423e-08 -2.6957077914689792e-08" pbc="T T T"
Li       0.00000000       0.00000000       3.18410788      -0.23705401       0.22251503       0.10922029       0.00000000       0.00000001       0.00000017       0.00000164       0.00000583       0.00000523
Cu       0.00000000       0.00000000       0.00000000      -1.41406490      -0.15377552      -0.52762487      -0.00000000       0.00000009      -0.00000015       0.00001009      -0.00000285      -0.00000246
Li      -2.02527788       1.16929473       5.30684647      -0.00717403       0.17623901      -0.02702039       0.00000001       0.00000000       0.00000017      -0.00000408      -0.00000768      -0.00000760
Cu      -2.02527788       1.16929473       2.12273859      -0.34302645       1.35161297       0.87934704       0.00000006      -0.00000000      -0.00000017      -0.00000438       0.00000704       0.00000630
Li       2.02527788       1.16929473       5.30684647      -0.00292418      -0.25305077      -0.02495039      -0.00000001      -0.00000000       0.00000017      -0.00000834      -0.00000152      -0.00000037
Cu       2.02527788       1.16929473       2.12273859       0.64761247      -1.42129461      -0.96297735      -0.00000006      -0.00000000      -0.00000017      -0.00000003      -0.00000313      -0.00000322
Li       0.00000000       2.33858946       7.42958506       0.12024163       0.18893917       0.28045803      -0.00000000      -0.00000001       0.00000017       0.00001114       0.00000313       0.00000243
Cu       0.00000000       2.33858946       4.24547718       1.23638947      -0.11118529       0.27354764      -0.00000000      -0.00000009      -0.00000018      -0.00000604      -0.00000081      -0.00000030
8
Lattice="4.047735648905302 2.336961266503921 4.242521360177038 -4.047735648905302 2.336961266503921 4.242521360177038 0.0 -2.336961266503921 2.121260680088519" Properties=species:S:1:pos:R:3:momenta:R:3:md_forces:R:3:REF_forces:R:3 config_type=supercell_bulk_MD buildcell_config_i=2 RSS_min_vol_per_atom=8.0 buildcell_type=narrow gap_rss_group=ALL gap_rss_iter=2 buildcell_symmetry="160 R3m R 3 -2\" @ 0.01" optimize_pressure_GPa=0.39451944363800906 optimize_config_type=optimize_last_converged optimize_energy=-11.84267179366303 optimize_stress="-0.002458237876328812 -0.0024582378763310375 -0.0024481211929734356 -1.2735746942420825e-14 -2.8606406600320355e-16 -1.00939497534938e-15" optimize_virial="_JSON [[0.14828945888301703, 9.449109675287587e-11, 1.171071814840829e-10], [9.451800067930454e-11, 0.1482894574392013, 2.2838735865422386e-09], [1.1711011338861765e-10, 2.283862955268844e-09, 0.1476791846364165]]" optimize_n_steps=10 E_per_atom_dist_to_nearby=0.14334889282883978 primitive_cell="_JSON [[2.02527787937598, 1.1692947288415163, 2.1227385898756546], [-2.02527787937598, 1.1692947288415163, 2.1227385898756546], [0.0, -2.3385894576830326, 2.1227385898756546]]" orig_cell="_JSON [[2.02527787937598, 1.1692947288415163, 2.1227385898756546], [-2.02527787937598, 1.1692947288415163, 2.1227385898756546], [0.0, -2.3385894576830326, 2.1227385898756546]]" supercell_n="2 2 1" MD_pressure_GPa=0.39451944363800906 MD_temperature_K=1166.6666666666667 MD_time_fs=100.0 MD_step=100 md_energy=-22.538552449843237 _ConfigSet_loc=" / 0 / 1" vasp_rundir=run_iter_2/run_VASP_kchilmoh REF_energy=-14.19897905 REF_stress="0.7303950997335638 0.7302314307868348 0.7858797564661106 -0.011668547728942122 -0.0002867125971234245 -3.9734083729303665e-05" pbc="T T T"
Li       0.07788530       0.07807969       3.22227254      -0.38398967      -0.00547121       0.54474714      -0.17293073      -1.44098489      -0.50941186      -0.35526683      -0.28470956       0.04149544
Cu      -0.05441164       0.04769215       0.01218616       0.04309439       2.54334931       1.99510512       2.21019096      -0.90165740      -1.21286107       0.02776473       0.19796997       0.02022810
Li      -2.04846257       1.24486548       5.33286232      -0.15325044       0.84076724      -0.74514010       0.16538583      -0.68418960      -0.92825681       0.15887394      -0.34054679      -0.16946891
Cu      -2.04878648       1.21429638       2.14826021       2.52574087       2.02852238      -2.52410040       0.06861169      -1.04438802      -0.36027349       0.06973474       0.08687499      -0.02707702
Li       1.98577752       1.23276374       5.23538157      -0.02631947      -1.88081736      -0.61444447       0.71628355      -1.11395037       0.22944955       0.24760188      -0.20663898       0.08872938
Cu       1.99027267       1.04227379       2.12290959      -2.97947736      -2.80964837       4.09396180       0.74306331       5.39448549       0.33520587       0.11962559       0.60115844      -0.03556943
Li      -0.08022925       2.45747722       7.46699380       0.65186682       0.15855519      -0.27292397       0.18460488      -1.66238018       0.37133188       0.18825925      -0.36600375       0.03761997
Cu       0.12002741       2.33260848       4.19678276       0.32233487      -0.87525719      -2.47720511      -3.91520948       1.45306497       2.07481593      -0.45659330       0.31189569       0.04404246
8
Lattice="4.046213245119086 2.336082306268134 4.240925695059038 -4.046213245119086 2.336082306268134 4.240925695059038 0.0 -2.336082306268134 2.120462847529519" Properties=species:S:1:pos:R:3:momenta:R:3:md_forces:R:3:REF_forces:R:3 config_type=supercell_bulk_MD buildcell_config_i=2 RSS_min_vol_per_atom=8.0 buildcell_type=narrow gap_rss_group=ALL gap_rss_iter=2 buildcell_symmetry="160 R3m R 3 -2\" @ 0.01" optimize_pressure_GPa=0.39451944363800906 optimize_config_type=optimize_last_converged optimize_energy=-11.84267179366303 optimize_stress="-0.002458237876328812 -0.0024582378763310375 -0.0024481211929734356 -1.2735746942420825e-14 -2.8606406600320355e-16 -1.00939497534938e-15" optimize_virial="_JSON [[0.14828945888301703, 9.449109675287587e-11, 1.171071814840829e-10], [9.451800067930454e-11, 0.1482894574392013, 2.2838735865422386e-09], [1.1711011338861765e-10, 2.283862955268844e-09, 0.1476791846364165]]" optimize_n_steps=10 E_per_atom_dist_to_nearby=0.17202979745670977 primitive_cell="_JSON [[2.02527787937598, 1.1692947288415163, 2.1227385898756546], [-2.02527787937598, 1.1692947288415163, 2.1227385898756546], [0.0, -2.3385894576830326, 2.1227385898756546]]" orig_cell="_JSON [[2.02527787937598, 1.1692947288415163, 2.1227385898756546], [-2.02527787937598, 1.1692947288415163, 2.1227385898756546], [0.0, -2.3385894576830326, 2.1227385898756546]]" supercell_n="2 2 1" MD_pressure_GPa=0.39451944363800906 MD_temperature_K=1700.0 MD_time_fs=125.0 MD_step=125 md_energy=-22.309105212820278 _ConfigSet_loc=" / 0 / 2" vasp_rundir=run_iter_2/run_VASP_2degc0js REF_energy=-14.23236647 REF_stress="0.730902892507118 0.7330540648093822 0.7855096058895132 -0.009943637382528459 -4.581317630471318e-06 -0.0002169970685419204" pbc="T T T"
Li      -0.09619319      -0.10086598       3.19007346      -0.19725782       0.80549481       0.10314712       0.54555540       1.28247831       0.84914051       0.28407618       0.31427246       0.03086927
Cu       0.06008436       0.06003540      -0.02085808       4.00123902      -3.92401977      -3.47991192      -2.24608801      -3.59933832       0.18178101      -0.01637674      -0.38880385       0.01462589
Li      -1.96784926       1.16559634       5.23697760       0.69791035      -0.88009961       0.42903282      -0.13006793       0.43361210      -0.90577247      -0.10714619       0.12981332       0.02049253
Cu      -1.96789351       1.18860302       2.08105901       0.14597105      -4.84425666       0.41782348      -2.61130760      -1.46446991       2.54634663      -0.20251280      -0.46192175       0.18642006
Li       2.07824630       1.06126779       5.30803367       0.25360442       3.11106112       0.25490340      -0.50467500       2.00232446      -1.02104223      -0.11877706       0.39461631      -0.07573695
Cu       1.91668104       1.12383379       2.24009264       0.36683036       4.97719462       0.22261060       2.88249960      -0.04232828      -2.97862694       0.15792661      -0.15085381       0.00031091
Li       0.06298626       2.16817464       7.56551172       0.01188640       0.07654372       0.02096338       0.00625003       1.44935378      -1.33652768      -0.29141927       0.39193211      -0.09066027
Cu      -0.01730199       2.34097374       4.17107694      -5.28018377       0.67808177       2.03143113       2.05783350      -0.06163213       2.66470117       0.29422928      -0.22905479      -0.08632144
8
Lattice="4.0446432008863535 2.3351758408077266 4.2392800969341735 -4.0446432008863535 2.3351758408077266 4.2392800969341735 0.0 -2.3351758408077266 2.1196400484670868" Properties=species:S:1:pos:R:3:momenta:R:3:md_forces:R:3:REF_forces:R:3 config_type=supercell_bulk_MD buildcell_config_i=2 RSS_min_vol_per_atom=8.0 buildcell_type=narrow gap_rss_group=ALL gap_rss_iter=2 buildcell_symmetry="160 R3m R 3 -2\" @ 0.01" optimize_pressure_GPa=0.39451944363800906 optimize_config_type=optimize_last_converged optimize_energy=-11.84267179366303 optimize_stress="-0.002458237876328812 -0.0024582378763310375 -0.0024481211929734356 -1.2735746942420825e-14 -2.8606406600320355e-16 -1.00939497534938e-15" optimize_virial="_JSON [[0.14828945888301703, 9.449109675287587e-11, 1.171071814840829e-10], [9.451800067930454e-11, 0.1482894574392013, 2.2838735865422386e-09], [1.1711011338861765e-10, 2.283862955268844e-09, 0.1476791846364165]]" optimize_n_steps=10 E_per_atom_dist_to_nearby=0.2155750591030703 primitive_cell="_JSON [[2.02527787937598, 1.1692947288415163, 2.1227385898756546], [-2.02527787937598, 1.1692947288415163, 2.1227385898756546], [0.0, -2.3385894576830326, 2.1227385898756546]]" orig_cell="_JSON [[2.02527787937598, 1.1692947288415163, 2.1227385898756546], [-2.02527787937598, 1.1692947288415163, 2.1227385898756546], [0.0, -2.3385894576830326, 2.1227385898756546]]" supercell_n="2 2 1" MD_pressure_GPa=0.39451944363800906 MD_temperature_K=1966.6666666666667 MD_time_fs=150.0 MD_step=150 md_energy=-21.960743119649393 _ConfigSet_loc=" / 0 / 3" vasp_rundir=run_iter_2/run_VASP_3_ckmojr REF_energy=-14.13485194 REF_stress="0.7325805120935641 0.7301020962070451 0.7865785187220729 -0.011704334551228523 -0.0009715582725347431 -1.5822431603915214e-05" pbc="T T T"
Li      -0.04451660       0.13966962       3.36144224      -0.11146509      -0.46146512       0.08903189      -0.22477126      -0.73493543      -1.20726942       0.07221533      -0.49006723      -0.28086311
Cu       0.09783387      -0.09692783      -0.08757233      -1.91642599      -1.59092663      -0.08668756      -2.72212714       3.14737302       1.54369128      -0.19041672       0.59588352       0.03675156
Li      -1.95663638       1.23032143       5.25278308      -0.58026328       0.72737482       1.35818666      -0.00174472      -0.92512909       0.96386310      -0.23216078      -0.14833853       0.15026914
Cu      -2.06272752       1.06559295       2.18431236      -3.75951489       0.76796518       2.80497712       0.52810758       4.00742132      -1.38753291       0.03626209       0.33544932      -0.04695113
Li       1.89203828       1.18695317       5.19541772      -1.00951694      -3.25457474       0.16310083       0.82014918      -0.12755078       1.52473878       0.42882986       0.06938504       0.17417879
Cu       2.04220899       1.29383511       2.11192504       4.28241769       3.21735025      -5.43010034      -1.63955553      -2.65338049       1.21016197      -0.18322095      -0.34981232      -0.08094263
Li      -0.03764969       2.43490147       7.35576925      -0.52503637      -0.21630934       0.52363808       0.60888919      -1.49032118       0.67315356       0.02747264      -0.43895029       0.01619012
Cu      -0.06128688       2.37274038       4.27327942       3.61980487       0.81058557       0.57785333       2.63105271      -1.22347737      -3.32080636       0.04101854       0.42645049       0.03136726
6
Lattice="3.4747601454066177 0.0 0.0 0.0 3.4747601454066177 0.0 0.0 0.0 8.565818315346002" Properties=species:S:1:pos:R:3:momenta:R:3:md_forces:R:3:REF_forces:R:3 config_type=supercell_bulk_MD buildcell_config_i=13 RSS_min_vol_per_atom=8.0 buildcell_type=wide gap_rss_group=ALL gap_rss_iter=2 buildcell_symmetry="123 P4/mmm -P 4 2 @ 0.01" optimize_pressure_GPa=0.01559459165316468 optimize_config_type=optimize_last_unconverged optimize_energy=-10.487781004767236 optimize_stress="-0.11234481709795716 -0.11234481709796232 1.06634953242667 1.0184260447422216e-13 -1.2368586380590307e-25 -1.2777443781274995e-38" optimize_virial="_JSON [[11.677266589592982, -1.0565159858089101e-12, -5.886583270285806e-12], [-1.0648704140692145e-12, 11.677266589705809, 3.4819772421681793e-12], [-5.901317889948659e-12, 3.463396852695712e-12, -110.83775904888054]]" optimize_n_steps=20 E_per_atom_dist_to_nearby=1.2129212801363667 primitive_cell="_JSON [[3.480551324034921, 0.0, 0.0], [0.0, 3.480551324034921, 0.0], [0.0, 0.0, 8.580094461579385]]" orig_cell="_JSON [[3.480551324034921, 0.0, 0.0], [0.0, 3.480551324034921, 0.0], [0.0, 0.0, 8.580094461579385]]" supercell_n="1 1 1" MD_pressure_GPa=0.002462396707805019 MD_temperature_K=633.3333333333334 MD_time_fs=50.0 MD_step=50 md_energy=-17.899834639820458 _ConfigSet_loc=" / 0 / 4" vasp_rundir=run_iter_2/run_VASP__nn_o2xz REF_energy=-2.96581559 REF_stress="0.6899148673434444 0.6899753002687181 0.5480631555224851 -0.009730757681519155 0.0046986365999031315 0.0008847809858142701" pbc="T T T"
Li       0.04031697       0.06248418       7.62110545       0.29111426      -0.04214524      -2.88454810      -0.14419940      -1.12966151      -4.18454221      -0.02112335       0.00847473      -0.42897650
Li      -0.00721938       0.05914773       1.48369904       0.20267616      -0.13956420       0.68733700       0.14418117       0.71603435      -3.37411159       0.49021759      -1.16558758     -11.74208195
Li      -0.04381120       0.15026517       2.33222988      -0.45787440       1.23328334      -2.37013584      -0.59826655      -1.60120085       3.27168581      -0.44620773       1.10770165      12.86948194
Cu       1.72596999       1.82625923       2.00206994       0.04887131       0.70204124      -2.60620959       0.13006417       0.35788729      -2.20288258      -0.06350718       0.06271580      -0.90368444
Cu       1.75423316       1.79288504       6.67761551      -0.09782925       1.00800126       7.02843042       0.50494113       0.64380728       6.69231980       0.06177237      -0.01001167       0.09296322
Cu       1.73310712       1.56330146       4.32321616       0.01304192      -2.76161641       0.14512612      -0.03672052       1.01313344      -0.20246923      -0.02115171      -0.00329294       0.11229773
6
Lattice="3.456499034376147 0.0 0.0 0.0 3.456499034376147 0.0 0.0 0.0 8.520801867367535" Properties=species:S:1:pos:R:3:momenta:R:3:md_forces:R:3:REF_forces:R:3 config_type=supercell_bulk_MD buildcell_config_i=13 RSS_min_vol_per_atom=8.0 buildcell_type=wide gap_rss_group=ALL gap_rss_iter=2 buildcell_symmetry="123 P4/mmm -P 4 2 @ 0.01" optimize_pressure_GPa=0.01559459165316468 optimize_config_type=optimize_last_unconverged optimize_energy=-10.487781004767236 optimize_stress="-0.11234481709795716 -0.11234481709796232 1.06634953242667 1.0184260447422216e-13 -1.2368586380590307e-25 -1.2777443781274995e-38" optimize_virial="_JSON [[11.677266589592982, -1.0565159858089101e-12, -5.886583270285806e-12], [-1.0648704140692145e-12, 11.677266589705809, 3.4819772421681793e-12], [-5.901317889948659e-12, 3.463396852695712e-12, -110.83775904888054]]" optimize_n_steps=20 E_per_atom_dist_to_nearby=1.1272793747651875 primitive_cell="_JSON [[3.480551324034921, 0.0, 0.0], [0.0, 3.480551324034921, 0.0], [0.0, 0.0, 8.580094461579385]]" orig_cell="_JSON [[3.480551324034921, 0.0, 0.0], [0.0, 3.480551324034921, 0.0], [0.0, 0.0, 8.580094461579385]]" supercell_n="1 1 1" MD_pressure_GPa=0.002462396707805019 MD_temperature_K=1700.0 MD_time_fs=125.0 MD_step=125 md_energy=-26.28421463856322 _ConfigSet_loc=" / 0 / 5" vasp_rundir=run_iter_2/run_VASP_g8iy9iw7 REF_energy=-3.91801587 REF_stress="0.5750834074335284 0.5706481937013171 0.6440649097193468 0.006911316097267071 0.01607371094151969 -0.06696641630959943" pbc="T T T"
Li      -0.23942622       0.04043393       6.68012277       0.64184461       1.59166168      -0.58814874       3.21597158      -0.77387933       3.30853194       0.80702074      -0.20882723      -0.23313708
Li       0.24831975       0.31220823       1.89277088       0.79505290      -0.95347904       0.25406351       1.51471719       3.64372090       1.22765934       2.20812051       3.56157244       1.44684918
Li      -0.33820443      -0.79540103       1.61019751      -1.69976772      -2.75011651       0.36622425      -2.94585605       2.55008232       0.81635872       2.03987824      -0.56328147      -3.38879450
Cu       1.83609210       1.86240983       2.11015804       2.39721487       3.99253091       1.51362452       0.03303425      -2.33654065      -3.39986270      -4.17292254      -2.96783436       0.92134268
Cu       1.73737357       1.71275106       6.60461284      -0.03025286      -0.80475720       3.48093281      -0.12855772       1.01082414      -0.03925448      -0.84848956       0.20276186       1.24259822
Cu       1.64724766       1.65794234       4.35017747      -2.10409179      -1.07583984      -5.02669635      -1.68930925      -4.09420738      -1.91343282      -0.03360739      -0.02439124       0.01114149
6
Lattice="3.4520198830761903 0.0 0.0 0.0 3.4520198830761903 0.0 0.0 0.0 8.509760070340736" Properties=species:S:1:pos:R:3:momenta:R:3:md_forces:R:3:REF_forces:R:3 config_type=supercell_bulk_MD buildcell_config_i=13 RSS_min_vol_per_atom=8.0 buildcell_type=wide gap_rss_group=ALL gap_rss_iter=2 buildcell_symmetry="123 P4/mmm -P 4 2 @ 0.01" optimize_pressure_GPa=0.01559459165316468 optimize_config_type=optimize_last_unconverged optimize_energy=-10.487781004767236 optimize_stress="-0.11234481709795716 -0.11234481709796232 1.06634953242667 1.0184260447422216e-13 -1.2368586380590307e-25 -1.2777443781274995e-38" optimize_virial="_JSON [[11.677266589592982, -1.0565159858089101e-12, -5.886583270285806e-12], [-1.0648704140692145e-12, 11.677266589705809, 3.4819772421681793e-12], [-5.901317889948659e-12, 3.463396852695712e-12, -110.83775904888054]]" optimize_n_steps=20 E_per_atom_dist_to_nearby=0.5864598775719552 primitive_cell="_JSON [[3.480551324034921, 0.0, 0.0], [0.0, 3.480551324034921, 0.0], [0.0, 0.0, 8.580094461579385]]" orig_cell="_JSON [[3.480551324034921, 0.0, 0.0], [0.0, 3.480551324034921, 0.0], [0.0, 0.0, 8.580094461579385]]" supercell_n="1 1 1" MD_pressure_GPa=0.002462396707805019 MD_temperature_K=1966.6666666666667 MD_time_fs=150.0 MD_step=150 md_energy=-29.529131621722613 _ConfigSet_loc=" / 0 / 6" vasp_rundir=run_iter_2/run_VASP_jc0d9ptw REF_energy=267.57715515 REF_stress="0.38127487240138364 -0.2552528274478239 -3.2628755052172087 1.9196564144746258 -1.0739869717240105 0.515709856156453" pbc="T T T"
Li      -0.18707680      -0.08871228       7.07024845       1.04990697      -0.31971824       0.22508202       3.27863048       1.67999185      -0.86278177       0.74991434       0.31713602       0.15737127
Li       0.31419540       0.14345149       1.70191566      -0.05126330      -0.81222278       0.28924531      -1.37135293       1.28734608       2.10641900      -0.21395667       0.74091214      -0.11122033
Li      -1.53002568      -1.32878479       1.78302119      -0.52623668      -4.71268110      -0.67969528       3.81281542      -0.90954114      -6.39951664    -442.05318441     788.39797965   -1632.30522841
Cu       1.98851301       2.00466658       2.02851301       2.13362328       2.81519093      -1.05508515      -2.61778618      -7.05073023       7.20502913     442.54962689    -788.91703435    1632.05729763
Cu       1.80629130       1.73551392       6.66284997       1.07307124       1.13494419      -0.81340187      -3.09816848      -0.43289627      -2.19549668      -0.81180672      -0.29702512       0.10172604
Cu       1.53644011       1.57699067       4.31457659      -3.67910150       1.89448701       2.03385498      -0.00413831       5.42582971       0.14634696      -0.22059343      -0.24196834       0.10005380
6
Lattice="3.447794790618115 0.0 0.0 0.0 3.447794790618115 0.0 0.0 0.0 8.499344567443577" Properties=species:S:1:pos:R:3:momenta:R:3:md_forces:R:3:REF_forces:R:3 config_type=supercell_bulk_MD buildcell_config_i=13 RSS_min_vol_per_atom=8.0 buildcell_type=wide gap_rss_group=ALL gap_rss_iter=2 buildcell_symmetry="123 P4/mmm -P 4 2 @ 0.01" optimize_pressure_GPa=0.01559459165316468 optimize_config_type=optimize_last_unconverged optimize_energy=-10.487781004767236 optimize_stress="-0.11234481709795716 -0.11234481709796232 1.06634953242667 1.0184260447422216e-13 -1.2368586380590307e-25 -1.2777443781274995e-38" optimize_virial="_JSON [[11.677266589592982, -1.0565159858089101e-12, -5.886583270285806e-12], [-1.0648704140692145e-12, 11.677266589705809, 3.4819772421681793e-12], [-5.901317889948659e-12, 3.463396852695712e-12, -110.83775904888054]]" optimize_n_steps=20 E_per_atom_dist_to_nearby=0.024722817842335765 primitive_cell="_JSON [[3.480551324034921, 0.0, 0.0], [0.0, 3.480551324034921, 0.0], [0.0, 0.0, 8.580094461579385]]" orig_cell="_JSON [[3.480551324034921, 0.0, 0.0], [0.0, 3.480551324034921, 0.0], [0.0, 0.0, 8.580094461579385]]" supercell_n="1 1 1" MD_pressure_GPa=0.002462396707805019 MD_temperature_K=2233.3333333333335 MD_time_fs=175.0 MD_step=175 md_energy=-32.89955398010033 _ConfigSet_loc=" / 0 / 7" vasp_rundir=run_iter_2/run_VASP_ihrf9lmu REF_energy=92.30017049 REF_stress="-0.682357695279634 0.6124155713494731 -0.7043629075841276 0.24488464894968465 -1.366437316415746 0.2332294127618817" pbc="T T T"
Li      -0.11424317      -0.09399543       6.56821508       0.75942342       1.29889830      -1.79386914       5.05323795       4.13861133       4.07423525       1.00692781       0.76145865      -0.29540950
Li       0.01838310       0.15055768       2.22542174       0.38737945       0.39616798       1.58334185      -0.60933005      -1.36541425      -0.42982675       0.42066430      -0.28343354       0.74008676
Li      -1.87840346      -1.58256172       1.71576074      -0.69045013      -0.30820507      -0.97041874       0.11161761      -5.95699172      -9.30246423    -441.21673657      78.15336559    -449.26038113
Cu       1.87364944       1.81138802       2.02529275      -7.04037023      -9.16575988      -3.34526818       1.61921775       0.21856988      -1.69922788     440.85153081     -77.80441021     447.17758812
Cu       1.88229633       1.81083618       6.67119616       4.16311088       1.79537548       6.59825597      -0.11022546      -2.79519338       4.19049231      -1.04482894      -0.75603682       0.49998025
Cu       1.63136012       1.71612578       4.29712174       2.42090661       5.98352320      -2.07204176      -6.06451780       5.76041814       3.16679130      -0.01755740      -0.07094368       1.13813550
6
Lattice="3.4444636602439287 0.0 0.0 0.0 3.4444636602439287 0.0 0.0 0.0 8.491132818610284" Properties=species:S:1:pos:R:3:momenta:R:3:md_forces:R:3:REF_forces:R:3 config_type=supercell_bulk_MD buildcell_config_i=13 RSS_min_vol_per_atom=8.0 buildcell_type=wide gap_rss_group=ALL gap_rss_iter=2 buildcell_symmetry="123 P4/mmm -P 4 2 @ 0.01" optimize_pressure_GPa=0.01559459165316468 optimize_config_type=optimize_last_unconverged optimize_energy=-10.487781004767236 optimize_stress="-0.11234481709795716 -0.11234481709796232 1.06634953242667 1.0184260447422216e-13 -1.2368586380590307e-25 -1.2777443781274995e-38" optimize_virial="_JSON [[11.677266589592982, -1.0565159858089101e-12, -5.886583270285806e-12], [-1.0648704140692145e-12, 11.677266589705809, 3.4819772421681793e-12], [-5.901317889948659e-12, 3.463396852695712e-12, -110.83775904888054]]" optimize_n_steps=20 E_per_atom_dist_to_nearby=0.0 primitive_cell="_JSON [[3.480551324034921, 0.0, 0.0], [0.0, 3.480551324034921, 0.0], [0.0, 0.0, 8.580094461579385]]" orig_cell="_JSON [[3.480551324034921, 0.0, 0.0], [0.0, 3.480551324034921, 0.0], [0.0, 0.0, 8.580094461579385]]" supercell_n="1 1 1" MD_pressure_GPa=0.002462396707805019 MD_temperature_K=2500.0 MD_time_fs=200.0 MD_step=200 md_energy=-33.047890887154345 _ConfigSet_loc=" / 0 / 8" vasp_rundir=run_iter_2/run_VASP_e7_jmhil REF_energy=23.64220906 REF_stress="0.5031403695289772 0.22099345961196543 -0.011969439917569418 0.5471845199640052 -0.3160601803358932 0.26044908420373825" pbc="T T T"
Li       0.06565331       0.25598885       6.94096616       0.43175262      -1.14663029       0.25451588       1.73504910      -0.73828850      -3.55810788       0.92188626      -0.70897019       0.05773266
Li      -0.06082999       0.12077336       2.20740514      -0.91076968       1.49310502       0.45769180      -2.62388621      -3.47953572       4.51936617       0.12972076      -0.96205093       1.00045352
Li      -1.92772411      -1.50950391       1.49841341       0.04213062       0.91028214      -0.47770953       9.60946821      -5.42977386      -0.48579100     -67.00672806     116.00492515    -148.68220230
Cu       1.72520880       1.57464243       1.95737724      -2.36616917      -3.13860816       3.77958063      -0.54813365       9.10105833       3.80730342      66.87644896    -115.28206987     145.72857943
Cu       2.03749796       1.80422056       6.87830179       1.73597006      -1.04535076       1.52022176      -5.78241858      -1.79581832      -5.73931958      -1.00219363       0.71987031      -0.03694877
Cu       1.61399299       1.91154174       4.12926441       1.06708556       2.92720205      -5.53430055      -2.39007887       2.34235807       1.45654886       0.08086572       0.22829553       1.93238547
4
Lattice="2.9811665197739545 1.7211772926904951 3.2901792694666017 -2.981166519773811 1.7211772926904965 3.290179269466468 7.67732733297425e-14 -3.442354585381098 3.29017926946659" Properties=species:S:1:pos:R:3:optimize_forces:R:3:momenta:R:3:md_forces:R:3:REF_forces:R:3 config_type=supercell_vacancy_optimize_last_unconverged_MD buildcell_config_i=29 RSS_min_vol_per_atom=10.0 buildcell_type=narrow_odd gap_rss_group=ALL gap_rss_iter=2 buildcell_symmetry="146 R3 R 3 @ 0.01" optimize_pressure_GPa=0.006910111000525614 optimize_config_type=optimize_last_unconverged optimize_virial="_JSON [[1.4054326473553391, -2.270406085358445e-13, -1.7828175020148517e-12], [-2.2670754162845697e-13, 1.4054326473587682, 1.0219707025083125e-12], [-1.8009066460322742e-12, 1.0241217596185237e-12, 0.9360567951280887]]" optimize_n_steps=20 E_per_atom_dist_to_nearby=0.15532430809614928 primitive_cell="_JSON [[2.8203303500759214, 1.6283184868200045, 3.66632285997942], [-2.8203303500759214, 1.6283184868200045, 3.66632285997942], [0.0, -3.256636973640009, 3.66632285997942]]" orig_cell="_JSON [[2.8203303500759214, 1.6283184868200045, 3.66632285997942], [-2.8203303500759214, 1.6283184868200045, 3.66632285997942], [0.0, -3.256636973640009, 3.66632285997942]]" supercell_n="1 1 1" vacancy_Z=3 vacancy_pos="_JSON [[-2.220446049250313e-16, -1.1102230246251565e-16, 2.795675471961571]]" optimize_energy=-7.94668157996966 optimize_stress="-0.013874820797069375 -0.013874820797069686 -0.009241012233994247 -2.467644144577008e-16 5.14569876630686e-16 -1.81999202058071e-17" MD_pressure_GPa=0.006910111000525614 MD_temperature_K=50.0 MD_time_fs=0.0 MD_step=0 md_energy=-7.946681579547871 _ConfigSet_loc=" / 0 / 9" vasp_rundir=run_iter_2/run_VASP_67rpy20s REF_energy=-6.79640742 REF_stress="-0.0007650593661689761 -0.0007650913913523011 0.01603360238596736 2.4447991246084722e-08 -7.532253213115916e-08 -1.4948414356490404e-07" pbc="T T T"
Li      -1.57890507      -0.52474221       7.08288401       0.08579440      -0.01473186      -0.04563145       0.12621885      -0.22330292       0.03737964       0.08579441      -0.01473188      -0.04563145      -0.18785881      -0.26057449       0.08011243
Li       1.24389262      -1.10500080       7.08288401      -0.03013904       0.08166606      -0.04563145      -0.34395661      -0.05208467      -0.04708221      -0.03013903       0.08166609      -0.04563147       0.31959506      -0.03240527       0.08011376