8
Lattice="7.046174124792978 0.0 0.0 0.0021314055614300195 4.037734113154713 0.0 0.16303415378972172 0.07421205987712996 5.546402731217532" Properties=species:S:1:pos:R:3:momenta:R:3:md_forces:R:3:REF_forces:R:3 config_type=supercell_bulk_MD buildcell_config_i=24 RSS_min_vol_per_atom=10.0 buildcell_type=narrow_even gap_rss_group=ALL gap_rss_iter=2 buildcell_symmetry="1 P1 P 1 @ 0.01" minim_pressure_GPa=0.7837992481046419 minim_config_type=minim_last_unconverged minim_energy=-7.622937268554883 minim_stress="0.004025259288181323 0.007871055622209229 0.013907699476579863 -0.012010901465454228 0.0060326479860349485 0.00210357848292065" minim_n_steps=20 E_per_atom_dist_to_nearby=1.4659164366053106 primitive_cell="_JSON [[3.523087062396489, 0.0, 0.0], [0.0021314055614300195, 4.037734113154713, 0.0], [0.16303415378972172, 0.07421205987712996, 5.546402731217532]]" orig_cell="_JSON [[3.523087062396489, 0.0, 0.0], [0.0021314055614300195, 4.037734113154713, 0.0], [0.16303415378972172, 0.07421205987712996, 5.546402731217532]]" supercell_n="2 1 1" MD_pressure_GPa=0.7837992481046419 MD_temperature_K=100.0 MD_time_fs=0.0 md_energy=-15.245874533986584 vasp_rundir=run_iter_2/run_VASP__jhoqzmo REF_energy=-14.65255924 REF_stress="0.0032406544213630308 -0.015641479643790344 0.002312260397452431 -0.001900370989360526 0.0024245642893355596 0.0002620179664027214" pbc="T T T"
Li       1.01164924       3.56886702       2.29116514       0.26493761      -0.36282983       0.16924336      -0.04015040       0.13378032      -0.03905184      -0.11665486       0.04894697      -0.12503381
Li       1.02824080       1.58260472       4.23293063       0.05628780       0.17453619       0.05071652      -0.01883015       0.10932324       0.11771151       0.05408506       0.11859858       0.15180646
Li       2.82851321       3.68310747       5.02500114       0.20862727      -0.25421195      -0.31472134      -0.07855761      -0.25031819       0.16661103      -0.06234366      -0.12785148      -0.00937160
Li       2.69660280       1.56773244       1.54470647       0.21837256       0.24848549       0.28763483       0.13753814       0.00721464      -0.24527071       0.12491381      -0.03969434      -0.01740043
Li       4.53473630       3.56886702       2.29116514      -0.11065945       0.03714210       0.07424570      -0.04015038       0.13378032      -0.03905183      -0.11665009       0.04894705      -0.12503285
Li       4.55132786       1.58260472       4.23293063      -0.04822002       0.22301454      -0.50510717      -0.01883013       0.10932323       0.11771151       0.05408785       0.11859791       0.15180423
Li       6.35160027       3.68310747       5.02500114      -0.17798405      -0.29896052      -0.06825273      -0.07855761      -0.25031819       0.16661103      -0.06234778      -0.12785057      -0.00937074
Li       6.21968986       1.56773244       1.54470647      -0.41136171       0.23282398       0.30624084       0.13753814       0.00721464      -0.24527070       0.12490967      -0.03969412      -0.01740126
8
Lattice="7.043997289947144 0.0 0.0 0.002130747088077736 4.036486701416078 0.0 0.16298378625398588 0.074189132910657 5.544689233577464" Properties=species:S:1:pos:R:3:momenta:R:3:md_forces:R:3:REF_forces:R:3 config_type=supercell_bulk_MD buildcell_config_i=24 RSS_min_vol_per_atom=10.0 buildcell_type=narrow_even gap_rss_group=ALL gap_rss_iter=2 buildcell_symmetry="1 P1 P 1 @ 0.01" minim_pressure_GPa=0.7837992481046419 minim_config_type=minim_last_unconverged minim_energy=-7.622937268554883 minim_stress="0.004025259288181323 0.007871055622209229 0.013907699476579863 -0.012010901465454228 0.0060326479860349485 0.00210357848292065" minim_n_steps=20 E_per_atom_dist_to_nearby=1.475240148134562 primitive_cell="_JSON [[3.523087062396489, 0.0, 0.0], [0.0021314055614300195, 4.037734113154713, 0.0], [0.16303415378972172, 0.07421205987712996, 5.546402731217532]]" orig_cell="_JSON [[3.523087062396489, 0.0, 0.0], [0.0021314055614300195, 4.037734113154713, 0.0], [0.16303415378972172, 0.07421205987712996, 5.546402731217532]]" supercell_n="2 1 1" MD_pressure_GPa=0.7837992481046419 MD_temperature_K=366.6666666666667 MD_time_fs=25.0 md_energy=-15.171284841752572 vasp_rundir=run_iter_2/run_VASP_832_sbsb REF_energy=-14.64029126 REF_stress="0.0019124693059558097 -0.01601550335766827 0.0030178321336293964 -8.429534437505631e-05 0.0012916008467073496 -0.0015610589229239616" pbc="T T T"
Li       1.04896265       3.60356555       2.27362973      -0.17650317       0.72660120      -0.38409091      -0.31016857       0.06605610      -0.07811803      -0.11381832       0.04464558      -0.09664042
Li       1.03450616       1.61501240       4.33793140      -0.00532477      -0.14022493       0.61559246      -0.00441090      -0.14345660      -0.16328178       0.02802783      -0.15615375       0.06279530
Li       2.88932772       3.55379252       4.99898930       0.15297716      -0.28612241       0.18248844      -0.12349134       0.38283775       0.08025490      -0.05966106       0.15837748       0.00778453
Li       2.81407339       1.59111100       1.51854713       0.39870316      -0.18395990      -0.45468156      -0.17684618       0.02133170      -0.06108930       0.02346424       0.01860740      -0.01686120
Li       4.48799267       3.66942103       2.29199418      -0.16418495       0.56208258      -0.03487249       0.04601391      -0.24416247       0.06611712      -0.05305389      -0.13013647      -0.12082014
Li       4.54252575       1.60458799       4.14950540       0.09467894      -0.28584732       0.07977716       0.20016245      -0.18364201       0.20843090       0.05313138      -0.08767891       0.21533180
Li       6.25343249       3.55224955       5.06946532      -0.37560203      -0.27920932       0.29604940       0.05836588       0.28801318      -0.06192939      -0.06248234       0.17440785      -0.08668241
Li       6.14251161       1.60845590       1.53945393       0.07525566      -0.11331990      -0.30026250       0.31037475      -0.18697766       0.00961558       0.18439216      -0.02206918       0.03509255
8
Lattice="7.045093281492155 0.0 0.0 0.002131078615859049 4.037114747554404 0.0 0.16300914527165092 0.07420067616643279 5.545551944374979" Properties=species:S:1:pos:R:3:momenta:R:3:md_forces:R:3:REF_forces:R:3 config_type=supercell_bulk_MD buildcell_config_i=24 RSS_min_vol_per_atom=10.0 buildcell_type=narrow_even gap_rss_group=ALL gap_rss_iter=2 buildcell_symmetry="1 P1 P 1 @ 0.01" minim_pressure_GPa=0.7837992481046419 minim_config_type=minim_last_unconverged minim_energy=-7.622937268554883 minim_stress="0.004025259288181323 0.007871055622209229 0.013907699476579863 -0.012010901465454228 0.0060326479860349485 0.00210357848292065" minim_n_steps=20 E_per_atom_dist_to_nearby=1.5540945385124953 primitive_cell="_JSON [[3.523087062396489, 0.0, 0.0], [0.0021314055614300195, 4.037734113154713, 0.0], [0.16303415378972172, 0.07421205987712996, 5.546402731217532]]" orig_cell="_JSON [[3.523087062396489, 0.0, 0.0], [0.0021314055614300195, 4.037734113154713, 0.0], [0.16303415378972172, 0.07421205987712996, 5.546402731217532]]" supercell_n="2 1 1" MD_pressure_GPa=0.7837992481046419 MD_temperature_K=900.0 MD_time_fs=75.0 md_energy=-14.540449718729105 vasp_rundir=run_iter_2/run_VASP_lgu65o4f REF_energy=-14.13366002 REF_stress="0.0013434732238978883 -0.017201181706320904 -0.011048455164176118 0.0004983674581403554 0.0022189617073708335 -0.00018429727170314234" pbc="T T T"
Li       1.23225746       3.50993348       2.26004123       1.15664061      -1.54304428       0.80534519      -0.48560693      -0.02665803      -0.05919166       0.03533673       0.11779076      -0.18580020
Li       0.84477661       1.49525979       4.27370471      -0.01627606       0.36677776      -1.25617406       0.32520835       0.33783274       0.01923317      -0.12198398       0.18788007       0.16481398
Li       2.89726909       3.76725610       5.04761588      -0.54818121       0.04384395      -0.53845452      -0.57555556      -0.25207468       0.07414549      -0.51196981      -0.19095420      -0.25003429
Li       3.23078202       1.70441873       1.08315471       0.34977656       0.18265948       0.94029839      -0.58326870      -0.48500152       0.76607920      -0.30089868      -0.42295464       0.64205261
Li       4.60337976       3.35653734       2.36534752       0.04419522      -0.76627797      -0.07214585      -0.29887105       0.82001477       0.06793923      -0.07624873       0.76961577       0.32116376
Li       4.44069773       1.65982070       4.29861251      -0.18251508       0.83320361      -0.60268836       0.37791724      -0.16296152      -0.33703661       0.20208943      -0.12330194      -0.46163048
Li       5.75551859       3.68834263       5.45603949      -0.27614411       0.51364403       0.12518394       0.68533515       0.13835227      -0.85745493       0.29185242      -0.01168788      -0.57811159
Li       6.21319653       1.61986321       1.39907368      -0.52749594       0.36919340       0.59863528       0.55484150      -0.36950401       0.32628611       0.48182262      -0.32638794       0.34754621
8
Lattice="7.043757470836425 0.0 0.0 0.0021306745449107276 4.036349275660323 0.0 0.16297823732699582 0.0741866070760851 5.544500459734077" Properties=species:S:1:pos:R:3:momenta:R:3:md_forces:R:3:REF_forces:R:3 config_type=supercell_bulk_MD buildcell_config_i=24 RSS_min_vol_per_atom=10.0 buildcell_type=narrow_even gap_rss_group=ALL gap_rss_iter=2 buildcell_symmetry="1 P1 P 1 @ 0.01" minim_pressure_GPa=0.7837992481046419 minim_config_type=minim_last_unconverged minim_energy=-7.622937268554883 minim_stress="0.004025259288181323 0.007871055622209229 0.013907699476579863 -0.012010901465454228 0.0060326479860349485 0.00210357848292065" minim_n_steps=20 E_per_atom_dist_to_nearby=0.946224047980945 primitive_cell="_JSON [[3.523087062396489, 0.0, 0.0], [0.0021314055614300195, 4.037734113154713, 0.0], [0.16303415378972172, 0.07421205987712996, 5.546402731217532]]" orig_cell="_JSON [[3.523087062396489, 0.0, 0.0], [0.0021314055614300195, 4.037734113154713, 0.0], [0.16303415378972172, 0.07421205987712996, 5.546402731217532]]" supercell_n="2 1 1" MD_pressure_GPa=0.7837992481046419 MD_temperature_K=1966.6666666666667 MD_time_fs=150.0 md_energy=-19.40341364298151 vasp_rundir=run_iter_2/run_VASP_k8o1qwtg REF_energy=-9.40917665 REF_stress="0.006367200717799914 -0.0356405993875304 -0.01683652213482605 0.001940808509892844 0.010745455536233975 0.0015031821203316863" pbc="T T T"
Li       1.09720446       2.07719271       3.58649176       0.06339400      -2.09536260      -0.43616632       0.83113734       8.01139247      -1.68627100      -0.89581368      -6.54206881       2.53538433
Li       1.22389880       3.10091783       3.27009433       1.07268914       0.70044122       0.02702638      -1.16402923      -8.97065437       1.73334874       0.71104395       6.04044108      -2.21588281
Li       2.68108331       4.30850474       5.17353491      -0.76437380       0.61371384       0.57748912       0.01969024      -0.33790551      -0.01560437       0.10599799      -0.55128574      -0.74571221
Li       2.03902797       0.67283506       1.75457344      -1.61499337       0.27788599       0.14252028       1.13078614       0.69472653      -0.58896900       0.31430549       0.61555657       0.24095780
Li       4.42248458       3.55952878       2.27266781       0.25326944      -0.99806100       0.33633895       0.23658651       0.08453760      -0.32256022       0.12595891      -0.24813724      -0.23019064
Li       4.59963087       1.75613540       4.25854349       0.98735385       0.49561983      -0.16379515       0.06677097       0.23366633      -0.02316741      -0.03807657       0.40996173       0.09844217
Li       6.58697428       4.11389046       4.71086961      -0.03620187       1.07722074      -0.31195762      -0.58939473      -0.48804075       0.19453487      -0.27495544      -0.42921465      -0.30109872
Li       6.56203357       1.20848287       1.15184975       0.03886262      -0.07145803      -0.17145564      -0.53154724       0.77227770       0.70868839      -0.04846065       0.70474706       0.61810008
8
Lattice="7.038590076322249 0.0 0.0 0.002129111453620255 4.033388155946776 0.0 0.16285867431634696 0.07413218279074905 5.5404329401782" Properties=species:S:1:pos:R:3:momenta:R:3:md_forces:R:3:REF_forces:R:3 config_type=supercell_bulk_MD buildcell_config_i=24 RSS_min_vol_per_atom=10.0 buildcell_type=narrow_even gap_rss_group=ALL gap_rss_iter=2 buildcell_symmetry="1 P1 P 1 @ 0.01" minim_pressure_GPa=0.7837992481046419 minim_config_type=minim_last_unconverged minim_energy=-7.622937268554883 minim_stress="0.004025259288181323 0.007871055622209229 0.013907699476579863 -0.012010901465454228 0.0060326479860349485 0.00210357848292065" minim_n_steps=20 E_per_atom_dist_to_nearby=0.4092018290488739 primitive_cell="_JSON [[3.523087062396489, 0.0, 0.0], [0.0021314055614300195, 4.037734113154713, 0.0], [0.16303415378972172, 0.07421205987712996, 5.546402731217532]]" orig_cell="_JSON [[3.523087062396489, 0.0, 0.0], [0.0021314055614300195, 4.037734113154713, 0.0], [0.16303415378972172, 0.07421205987712996, 5.546402731217532]]" supercell_n="2 1 1" MD_pressure_GPa=0.7837992481046419 MD_temperature_K=2233.3333333333335 MD_time_fs=175.0 md_energy=-23.699591394438077 vasp_rundir=run_iter_2/run_VASP_o8gt_50g REF_energy=-7.13447448 REF_stress="-0.041531448422193834 0.01985649855764017 -0.026691488450659585 -0.016412627907945565 0.006497856406618712 0.011208077802953796" pbc="T T T"
Li       0.66915561       2.34287859       3.46512177       0.10729054       0.50338781       0.47015660       8.96919464       0.13596810       0.29240164      -6.31226831      -0.07872504      -0.47244914
Li       1.81154996       2.35111232       3.54237292      -0.34002166      -0.70581189       1.01843864      -8.89518111       0.32023906      -0.13942372       6.60091222       0.16008158       0.50295631
Li       2.42027763       4.54082471       5.53950506      -1.44432440       1.21868690       4.39234656      -2.13319672       1.50861379       8.81959139       1.36024115      -1.56306968      -5.63945589
Li       2.00740306       0.70790348       1.18697125       1.87436435      -1.17895057      -6.11766107       1.80671717      -1.66749453      -8.83071431      -1.12195749       1.27780379       5.60132773
Li       4.56284575       3.30114017       2.26844323       0.31958914       0.09532839      -0.55486040      -0.28426524       0.90427676      -0.61749257      -0.40195650       0.43031806      -0.48729540
Li       4.86568605       1.89728463       4.22878097       0.16124348       0.08141747       0.19416311      -0.28604492      -0.11465331       0.39657022      -0.59521637      -0.02104207       0.53340910
Li       6.57588898       4.22899111       4.57319728       0.41101308      -0.82132678      -0.48778333       0.33235320      -0.89629715       0.04257882       0.25811246      -0.30205265       0.00425299
Li       6.27810024       1.41209555       1.35502763      -1.08915455       0.80726867       1.08519989       0.49042297      -0.19065273       0.03648854       0.21213285       0.09668600      -0.04274569
8
Lattice="5.4737336432299895 0.0 0.0 -1.3684334108074974 2.3701961942933596 0.0 0.0 0.0 8.814893091621364" Properties=species:S:1:pos:R:3:momenta:R:3:md_forces:R:3:REF_forces:R:3 config_type=supercell_bulk_MD buildcell_config_i=48 RSS_min_vol_per_atom=7.0 buildcell_type=narrow gap_rss_group=ALL gap_rss_iter=2 buildcell_symmetry="187 P-6m2 P -6 2 @ 0.01" minim_pressure_GPa=0.24765009428212514 minim_config_type=minim_last_unconverged minim_energy=-16.11024467170352 minim_stress="0.31008617038428676 0.3100861703842873 0.19822731466828913 1.9939596143137097e-44 6.929457380685614e-45 1.1102230246251565e-16" minim_n_steps=20 E_per_atom_dist_to_nearby=1.4935858221310507 primitive_cell="_JSON [[2.7352170140367633, 0.0, 0.0], [-1.3676085070183817, 2.3687674190192545, 0.0], [0.0, 0.0, 8.809579395935112]]" orig_cell="_JSON [[2.7352170140367633, 0.0, 0.0], [-1.3676085070183817, 2.3687674190192545, 0.0], [0.0, 0.0, 8.809579395935112]]" supercell_n="2 1 1" MD_pressure_GPa=0.24765009428212514 MD_temperature_K=366.6666666666667 MD_time_fs=25.0 md_energy=-58.49423929558908 vasp_rundir=run_iter_2/run_VASP_15zbfotp REF_energy=15.84898734 REF_stress="0.4214488157072477 0.43939076043219716 0.41687157592307317 -0.018351334589640268 -0.00027603059129596805 0.009706332927411545" pbc="T T T"
Li       0.08987610      -0.05894961       4.45413233      -0.13980082       0.18043889      -1.08508462      -1.68297724       0.87045079      -1.90608530      -0.59092559      -0.30176647      -0.02345718
Cu       0.00513401       1.59965853       7.88780283      -0.06926793       0.70785015      14.00170545      -0.29748458      -1.05164818     -10.09157417      -0.85462258      -1.25252881     -27.28501675
Cu       0.01706878       1.55313581       0.93029038       0.73084245      -1.85716399     -11.94116022       0.98236975      -2.19148219      12.25206279      -1.11761930       0.08579649      27.46072048
Cu       1.39707341       0.80011779       0.00424136       1.10325378      -0.06924836      -0.72308280       0.94214643      -0.36533032      -0.76428782      -0.54173498      -0.75663996      -0.97288728
Li       2.59720246      -0.13654525       4.48946594      -0.35425459      -0.53144183      -0.71349617       0.95597337       0.78309650      -2.07215635       0.59368109       0.31188638       0.03528766
Cu       2.73887213       1.61371158       7.83393970       0.45756865       2.87244898      13.36324617       0.88778206       2.81582459      -7.19653252       0.25595653       0.30479002     -25.31806611
Cu       2.72557533       1.55939078       0.94993517      -0.74347661      -0.75414499     -12.67588567      -1.17932815      -0.21510273       9.88353923       0.53441250       1.81156588      26.38639782
Cu       4.06918112       0.79598993       0.00952058      -0.98486494      -0.54873885      -0.22624215      -0.60848164      -0.64580846      -0.10496586       1.72085232      -0.20310353      -0.28297863
8
Lattice="5.531516422827664 0.0 0.0 -1.382879105706916 2.395216871809792 0.0 0.0 0.0 8.907946400000776" Properties=species:S:1:pos:R:3:momenta:R:3:md_forces:R:3:REF_forces:R:3 config_type=supercell_bulk_MD buildcell_config_i=48 RSS_min_vol_per_atom=7.0 buildcell_type=narrow gap_rss_group=ALL gap_rss_iter=2 buildcell_symmetry="187 P-6m2 P -6 2 @ 0.01" minim_pressure_GPa=0.24765009428212514 minim_config_type=minim_last_unconverged minim_energy=-16.11024467170352 minim_stress="0.31008617038428676 0.3100861703842873 0.19822731466828913 1.9939596143137097e-44 6.929457380685614e-45 1.1102230246251565e-16" minim_n_steps=20 E_per_atom_dist_to_nearby=1.2247402854568517 primitive_cell="_JSON [[2.7352170140367633, 0.0, 0.0], [-1.3676085070183817, 2.3687674190192545, 0.0], [0.0, 0.0, 8.809579395935112]]" orig_cell="_JSON [[2.7352170140367633, 0.0, 0.0], [-1.3676085070183817, 2.3687674190192545, 0.0], [0.0, 0.0, 8.809579395935112]]" supercell_n="2 1 1" MD_pressure_GPa=0.24765009428212514 MD_temperature_K=1966.6666666666667 MD_time_fs=150.0 md_energy=-94.32248327085954 vasp_rundir=run_iter_2/run_VASP__xpmu3xe REF_energy=6.88431417 REF_stress="0.5669244246408118 0.6404606002973826 0.9241307930150019 -0.03383700098115925 0.03985021306709608 -0.07413454832507316" pbc="T T T"
Li       1.15938370       2.65605267       4.61609132      -3.20138602       3.00367149      -0.36943674     -21.32103709      -7.42542855      -4.82045843       7.37647438       2.53282634       1.35003867
Cu      -0.05384159       1.27932478       7.99000795       2.90606526       1.96702729       7.41633346       1.34350379       5.29536083       2.74504654      -6.03039754      -4.77464298      -1.98611532
Cu       0.34407631       1.61187752       1.18111056       0.69553966       4.52832846       5.80888186      -2.25870829      -0.52624159       1.04749507      -9.19790693      -0.66601891       5.89108939
Cu       1.72940905       0.65099632      -1.18402240       1.51415475       6.76877600      -7.67402559      -5.66715371       3.48982961      -1.94277978       5.22990915       3.07815363      -6.95245462
Li       1.53357022      -0.02402000       4.43988634       0.77590627      -3.35808154       0.82723560      18.51896181       7.12590255       3.67411708      -7.43194360      -2.59131738      -1.28202022
Cu       2.94605327       2.05671942       8.23857399       0.47961240       1.15104824       2.46712630      -2.27833609      -4.44840327       3.64343170       2.60064517      -2.45821842     -11.08519142
Cu       2.08087421       1.14487736       0.96620610      -4.48124507     -10.50001315      -1.74447405       6.79386053      -7.42972688      -0.82548397       6.31967805       0.52764106       3.69044717
Cu       4.02441269       0.95281070       0.60784979       1.31135275      -3.56075680      -6.73164084       4.86890904       3.91870731      -3.52136821       1.13354131       4.35157665      10.37420635
8
Lattice="5.539089178230935 0.0 0.0 -1.3847722945577337 2.398495971087731 0.0 0.0 0.0 8.920141554832865" Properties=species:S:1:pos:R:3:momenta:R:3:md_forces:R:3:REF_forces:R:3 config_type=supercell_bulk_MD buildcell_config_i=48 RSS_min_vol_per_atom=7.0 buildcell_type=narrow gap_rss_group=ALL gap_rss_iter=2 buildcell_symmetry="187 P-6m2 P -6 2 @ 0.01" minim_pressure_GPa=0.24765009428212514 minim_config_type=minim_last_unconverged minim_energy=-16.11024467170352 minim_stress="0.31008617038428676 0.3100861703842873 0.19822731466828913 1.9939596143137097e-44 6.929457380685614e-45 1.1102230246251565e-16" minim_n_steps=20 E_per_atom_dist_to_nearby=0.2107670606193004 primitive_cell="_JSON [[2.7352170140367633, 0.0, 0.0], [-1.3676085070183817, 2.3687674190192545, 0.0], [0.0, 0.0, 8.809579395935112]]" orig_cell="_JSON [[2.7352170140367633, 0.0, 0.0], [-1.3676085070183817, 2.3687674190192545, 0.0], [0.0, 0.0, 8.809579395935112]]" supercell_n="2 1 1" MD_pressure_GPa=0.24765009428212514 MD_temperature_K=2233.3333333333335 MD_time_fs=175.0 md_energy=-102.43426906955995 vasp_rundir=run_iter_2/run_VASP_2xlm5jgk REF_energy=14.34359673 REF_stress="0.5844887040995574 0.5636651148667167 0.8405599901074278 -0.0037493405109110434 0.044217612284609374 -0.010315997546979061" pbc="T T T"
Li       0.24612967       2.67158200       4.63556257       2.24952968      -1.19393369       1.36073120      -6.36934917      -3.57433099      -2.20248825       7.02975113      20.15435335       9.52379677
Cu      -0.03669302       1.38079993       8.10686382      -4.53591259      -2.64323544      -3.27207929      -3.81423625      -5.69095666      -4.62893973      -5.95251079      -1.78363558      -2.04478453
Cu       0.36501719       1.55646150       1.28457468       4.00435801      -2.19433557      -2.20169519       2.95689090       5.50828947      -4.34801556      -6.09833751      -5.14285370       8.65146046
Cu       1.60562018       0.77336972      -1.32864958       0.89108609      -2.02241151       1.73500580       8.91495682      -4.47808119       5.25080882       8.54725708       2.50508853      -9.48885572
Li       1.47383582      -0.31358655       4.37422286      -4.07637313       0.68734395      -1.10214976       6.35327959       4.38773655       0.93789800      -6.96086612     -20.13176567      -9.49132565
Cu       3.03245926       1.99444785       8.34507115       3.85391507      -0.20542976       1.63990989      -0.88736148       3.73484171      -1.34093435      -3.26040322       0.50759868     -15.33845665
Cu       2.10849285       0.95709230       0.91235794      -1.34648526       4.09840575      -0.83322917      -3.68542158       4.74698283       1.78585470       5.72271894       4.35519252       1.43684414
Cu       4.11790875       1.07529335       0.51027490      -1.04011787       3.47359627       2.67350652      -3.46875883      -4.63448174       4.54581637       0.97239049      -0.46397814      16.75132117
8
Lattice="5.546142672489665 0.0 0.0 -1.3865356681224164 2.401550223694485 0.0 0.0 0.0 8.931500492235669" Properties=species:S:1:pos:R:3:momenta:R:3:md_forces:R:3:REF_forces:R:3 config_type=supercell_bulk_MD buildcell_config_i=48 RSS_min_vol_per_atom=7.0 buildcell_type=narrow gap_rss_group=ALL gap_rss_iter=2 buildcell_symmetry="187 P-6m2 P -6 2 @ 0.01" minim_pressure_GPa=0.24765009428212514 minim_config_type=minim_last_unconverged minim_energy=-16.11024467170352 minim_stress="0.31008617038428676 0.3100861703842873 0.19822731466828913 1.9939596143137097e-44 6.929457380685614e-45 1.1102230246251565e-16" minim_n_steps=20 E_per_atom_dist_to_nearby=0.0 primitive_cell="_JSON [[2.7352170140367633, 0.0, 0.0], [-1.3676085070183817, 2.3687674190192545, 0.0], [0.0, 0.0, 8.809579395935112]]" orig_cell="_JSON [[2.7352170140367633, 0.0, 0.0], [-1.3676085070183817, 2.3687674190192545, 0.0], [0.0, 0.0, 8.809579395935112]]" supercell_n="2 1 1" MD_pressure_GPa=0.24765009428212514 MD_temperature_K=2500.0 MD_time_fs=200.0 md_energy=-104.12040555451435 vasp_rundir=run_iter_2/run_VASP_hatmpuy_ REF_energy=12.06587277 REF_stress="0.5920885012891582 0.4781580475425198 0.9249620715224457 -0.009912338798246932 0.021332962106845398 -0.005250754399224348" pbc="T T T"
Li       0.26367512       2.22457988       4.57867503       2.08791945       3.99473219      -2.65444910       0.72760985       0.40201191      -1.86485011       9.94029194     -17.34277078      -1.81294018
Cu      -0.10338662       1.31892411       7.89739785       1.67811352       1.97073147      -0.94597017      -0.12344873      -0.56467814      10.19882340      -7.73726282      -4.40453797      -2.77984628
Cu       0.33816904       1.64248045       1.21720967      -3.91902668      -0.04684416       0.45563002       5.62275334      -8.52982875       0.73097147      -3.24200540      -5.61838058       6.42318010
Cu       1.66702359       0.70091194      -1.16641435      -0.65494386       1.76032771       2.25182252       1.31555164       3.27575319      -5.11318561       7.35835888       4.79731615      -5.57949953
Li       1.31296269       0.41198483       4.63538035      -1.22049948      -2.39392449       0.26558472      -0.25613063      -0.06174149      -5.06962359      -9.94557461      17.35417870       1.98765568
Cu       3.04041351       2.03446378       8.32141843      -2.11659237      -0.49405054      -1.41620437       1.50002492      -1.11815947       2.38925493       0.70627920      -2.70651120     -10.90195265
Cu       2.13893368       1.02056931       0.93034885       1.74427374      -1.44747858       1.14507304      -4.97033866       1.34900880       0.15442885       4.10836919       6.50633880       2.79628875
Cu       4.14179731       0.99987273       0.63218209       2.40075567      -3.34349361       0.89851333      -3.81602174       5.24763395      -1.42581934      -1.18845637       1.41436686       9.86711411
7
Lattice="2.395590971484523 0.058349915144842744 -0.03346444282040254 -0.4357995342711005 6.013666799877065 0.27918121493735876 -0.777585087795784 -2.4397675863528554 8.77735434290647" Properties=species:S:1:pos:R:3:minim_forces:R:3:momenta:R:3:md_forces:R:3:REF_forces:R:3 config_type=supercell_vacancy_minim_last_unconverged_MD buildcell_config_i=61 RSS_min_vol_per_atom=9.0 buildcell_type=narrow gap_rss_group=ALL gap_rss_iter=2 buildcell_symmetry="2 P-1 -P 1 @ 0.01" minim_pressure_GPa=0.4719898487035834 minim_config_type=minim_last_unconverged minim_n_steps=20 E_per_atom_dist_to_nearby=0.23674804948946937 primitive_cell="_JSON [[2.5550877470264375, 0.0, 0.0], [-0.6075703077394446, 5.860915011406694, 0.0], [-0.6435874485977395, -2.74134381404678, 8.51855420014873]]" orig_cell="_JSON [[2.5550877470264375, 0.0, 0.0], [-0.6075703077394446, 5.860915011406694, 0.0], [-0.6435874485977395, -2.74134381404678, 8.51855420014873]]" supercell_n="1 1 1" vacancy_Z=3 vacancy_pos="_JSON [[0.8026773066869959, -0.11282593869877111, 3.9005865313360712]]" minim_energy=-15.339625903917213 minim_stress="0.28012191885848486 0.03375890639292341 0.1793873653315234 -0.05703930458689802 0.022999593743840294 -0.028256545305130873" MD_pressure_GPa=0.4719898487035834 MD_temperature_K=50.0 MD_time_fs=0.0 md_energy=-15.339625904864402 vasp_rundir=run_iter_2/run_VASP_esyx3bxp REF_energy=-9.87933818 REF_stress="0.26699731779658736 0.32925091735928547 0.32965356789832395 0.030701145011989433 0.006379733468396396 -0.004964977597805676" pbc="T T T"
Li       0.87082143       3.56280514       5.31414776       0.01287463       2.34393593       0.50929622       0.16012364      -0.30258497       0.17138736       0.01287467       2.34393593       0.50929620      -0.07600900       0.57383428      -0.61723919
Li      -0.71381776       1.70189880       6.69505502       0.61220946       1.07411050       0.66389328      -0.01410921       0.14614208       0.07241163       0.61220944       1.07411046       0.66389329       0.20605520       0.24880736      -0.28450603
Li       1.77857873       1.90986422       2.20631365      -0.15923154      -1.51650291       0.15928494       0.11310173      -0.21188370      -0.23274696      -0.15923153      -1.51650294       0.15928506      -0.16656942      -1.41531238       1.41638503
Li       0.76662029      -0.30556199       7.17475152       0.98543615      -1.96575411      -1.26355187       0.12123954       0.20789338       0.27025006       0.98543617      -1.96575405      -1.26355203      -0.03391661      -0.58668872      -0.41055987
Li       0.28914894       3.74116107       1.72949508      -0.53439354       0.30077835      -0.74241183      -0.15351838       0.03141126       0.09205964      -0.53439360       0.30077827      -0.74241172       0.04949701       1.26694522      -0.21491015