6
Lattice="3.676577300805926 0.0 0.0 -1.838288650402963 3.1840093414751536 0.0 0.0 0.0 6.9429959610904435" Properties=species:S:1:pos:R:3:momenta:R:3:md_forces:R:3:REF_forces:R:3 config_type=supercell_bulk_MD buildcell_config_i=2 RSS_min_vol_per_atom=8.0 buildcell_type=narrow gap_rss_group=ALL gap_rss_iter=2 buildcell_symmetry="152 P3_121 P 31 2\" @ 0.01" minim_pressure_GPa=0.046730359646825564 minim_config_type=minim_last_unconverged minim_energy=-19.039408216381005 minim_stress="-0.0001242760557253436 -0.00012427605572534373 -0.0009737908115315812 0.0 0.0 -2.5115688247649736e-20" minim_n_steps=20 E_per_atom_dist_to_nearby=0.0 primitive_cell="_JSON [[3.676577300805926, 0.0, 0.0], [-1.838288650402963, 3.1840093414751536, 0.0], [0.0, 0.0, 6.9429959610904435]]" orig_cell="_JSON [[3.676577300805926, 0.0, 0.0], [-1.838288650402963, 3.1840093414751536, 0.0], [0.0, 0.0, 6.9429959610904435]]" supercell_n="1 1 1" MD_pressure_GPa=0.046730359646825564 MD_temperature_K=100.0 MD_time_fs=0.0 md_energy=-19.03940821653415 vasp_rundir=run_iter_2/run_VASP_qjakrdrg REF_energy=-9.46706911 REF_stress="0.7645156278453169 0.7645322646690315 0.85318871122801 -9.169837962473906e-07 1.5759810542855226e-06 1.4417954737390711e-05" pbc="T T T"
Li      -1.38778339       2.40371134       1.15716599       0.35299640       0.54130685       0.13255386       0.00063499      -0.00109967       0.00000010       0.38608079      -0.66982787      -0.00006316
Li       2.77556677       0.00000000       5.78582997      -0.20189838       0.05458180      -0.24929292      -0.00126970       0.00000008      -0.00000009      -0.77312906      -0.00055944       0.00006091
Li       0.45050526       0.78029801       3.47149798       0.28254742       0.08866384      -0.07348570       0.00063484       0.00109952       0.00000001       0.38609287       0.66873343       0.00000213
Cu       0.72404283       1.25407896       0.00000000       0.32890396      -1.09207514      -0.20606641       0.00063315       0.00109686      -0.00000005      -0.20203481      -0.34993082      -0.00000173
Cu       2.22849165       0.00000000       2.31433199      -0.79095759      -0.67880237       0.62291288      -0.00126652      -0.00000001      -0.00000009       0.40686760      -0.00049104       0.01022146
Cu      -1.11424583       1.92993038       4.62866397       0.02840820       1.08632502      -0.22662172       0.00063324      -0.00109677       0.00000013      -0.20387739       0.35207573      -0.01021961
6
Lattice="3.677942883364134 0.0 0.0 -1.838971441682067 3.185191970661525 0.0 0.0 0.0 6.945574781936694" Properties=species:S:1:pos:R:3:momenta:R:3:md_forces:R:3:REF_forces:R:3 config_type=supercell_bulk_MD buildcell_config_i=2 RSS_min_vol_per_atom=8.0 buildcell_type=narrow gap_rss_group=ALL gap_rss_iter=2 buildcell_symmetry="152 P3_121 P 31 2\" @ 0.01" minim_pressure_GPa=0.046730359646825564 minim_config_type=minim_last_unconverged minim_energy=-19.039408216381005 minim_stress="-0.0001242760557253436 -0.00012427605572534373 -0.0009737908115315812 0.0 0.0 -2.5115688247649736e-20" minim_n_steps=20 E_per_atom_dist_to_nearby=0.053084565417067076 primitive_cell="_JSON [[3.676577300805926, 0.0, 0.0], [-1.838288650402963, 3.1840093414751536, 0.0], [0.0, 0.0, 6.9429959610904435]]" orig_cell="_JSON [[3.676577300805926, 0.0, 0.0], [-1.838288650402963, 3.1840093414751536, 0.0], [0.0, 0.0, 6.9429959610904435]]" supercell_n="1 1 1" MD_pressure_GPa=0.046730359646825564 MD_temperature_K=633.3333333333334 MD_time_fs=50.0 md_energy=-18.720900824031744 vasp_rundir=run_iter_2/run_VASP_w9uizqwz REF_energy=-9.33519848 REF_stress="0.7623873879772944 0.7673880628504551 0.8522484785592498 -0.009076075097600127 0.00393764541817486 0.005583690726639768" pbc="T T T"
Li      -1.49843352       2.43349833       1.30623538      -0.01428715       0.90073229       0.81166461      -0.59542211      -0.32513278      -1.20471020       0.44737386      -0.76118083      -0.43603184
Li       2.77400209       0.01582317       5.73961355      -0.22643650       0.14448671      -0.76425153       0.26317851      -0.05518938      -0.58406080      -0.83962551       0.09683384       0.11028534
Li       0.37323584       0.85849683       3.47447061       0.44831801       0.13456432      -0.12550124       0.34756818      -0.73858394       0.07639897       0.55077937       0.49823238       0.00515303
Cu       0.79767463       1.20855553      -0.09256335       0.90572900      -1.77688079      -0.96680575      -0.15169030      -0.49965475       3.19899935      -0.11768725      -0.19367888      -0.13999069
Cu       2.16540372      -0.08204182       2.34441082      -1.96905491      -1.47909187       0.04246753       0.35340848       1.35107011       0.11504005       0.08731695       0.28629231       0.47929004
Cu      -1.10333835       2.04528596       4.68259232       0.85573156       2.07618934       1.00242638      -0.21704276       0.26749074      -1.60166738      -0.12815742       0.07350119      -0.01870588
6
Lattice="3.6769116599279834 0.0 0.0 -1.8384558299639917 3.1842989049688395 0.0 0.0 0.0 6.943627378260287" Properties=species:S:1:pos:R:3:momenta:R:3:md_forces:R:3:REF_forces:R:3 config_type=supercell_bulk_MD buildcell_config_i=2 RSS_min_vol_per_atom=8.0 buildcell_type=narrow gap_rss_group=ALL gap_rss_iter=2 buildcell_symmetry="152 P3_121 P 31 2\" @ 0.01" minim_pressure_GPa=0.046730359646825564 minim_config_type=minim_last_unconverged minim_energy=-19.039408216381005 minim_stress="-0.0001242760557253436 -0.00012427605572534373 -0.0009737908115315812 0.0 0.0 -2.5115688247649736e-20" minim_n_steps=20 E_per_atom_dist_to_nearby=0.13286878111682165 primitive_cell="_JSON [[3.676577300805926, 0.0, 0.0], [-1.838288650402963, 3.1840093414751536, 0.0], [0.0, 0.0, 6.9429959610904435]]" orig_cell="_JSON [[3.676577300805926, 0.0, 0.0], [-1.838288650402963, 3.1840093414751536, 0.0], [0.0, 0.0, 6.9429959610904435]]" supercell_n="1 1 1" MD_pressure_GPa=0.046730359646825564 MD_temperature_K=900.0 MD_time_fs=75.0 md_energy=-18.242195529833218 vasp_rundir=run_iter_2/run_VASP_ez4h30rl REF_energy=-9.2448151 REF_stress="0.7501451403902549 0.7621480088632686 0.8467601350234358 -0.007826903761545639 0.008382475555843538 0.006512632892364822" pbc="T T T"
Li      -1.52365446       2.37378934       1.14521640       0.22771599       0.31733424       0.00277854      -0.64698281       1.07094659       1.94997285       0.61686786      -0.43876089       0.10612971
Li       2.71214150      -0.05688096       5.48217537       0.45799931      -0.61421739       0.95022430       2.29042536       0.76652783      -0.07673370      -0.88816397       0.47990914       0.60639614
Li       0.51103996       0.76064413       3.43666041       0.00550387      -0.97982352      -1.05394912      -1.99901080       0.95866517       0.93399780      -0.45400791       1.45216691       0.08754727
Cu       0.83471101       1.13265704      -0.06394550      -0.06247634      -1.56228146      -1.51977782      -2.27403875       1.10205183      -3.52397497      -0.33263400      -0.38706898      -0.48453048
Cu       2.12773661      -0.08880572       2.37846280       1.32785650       0.58881559       1.70208058       2.62511905      -0.41733158      -0.68841716       0.71117027      -0.10816651       0.03130020
Cu      -1.10881907       2.15210560       4.66748604      -1.95659934       2.25017254      -0.08135650       0.00448796      -3.48085985       1.40515518       0.34676775      -0.99807968      -0.34684285
6
Lattice="3.6714830092282362 0.0 0.0 -1.8357415046141181 3.1795975555545866 0.0 0.0 0.0 6.933375696655702" Properties=species:S:1:pos:R:3:momenta:R:3:md_forces:R:3:REF_forces:R:3 config_type=supercell_bulk_MD buildcell_config_i=2 RSS_min_vol_per_atom=8.0 buildcell_type=narrow gap_rss_group=ALL gap_rss_iter=2 buildcell_symmetry="152 P3_121 P 31 2\" @ 0.01" minim_pressure_GPa=0.046730359646825564 minim_config_type=minim_last_unconverged minim_energy=-19.039408216381005 minim_stress="-0.0001242760557253436 -0.00012427605572534373 -0.0009737908115315812 0.0 0.0 -2.5115688247649736e-20" minim_n_steps=20 E_per_atom_dist_to_nearby=0.28260487658497624 primitive_cell="_JSON [[3.676577300805926, 0.0, 0.0], [-1.838288650402963, 3.1840093414751536, 0.0], [0.0, 0.0, 6.9429959610904435]]" orig_cell="_JSON [[3.676577300805926, 0.0, 0.0], [-1.838288650402963, 3.1840093414751536, 0.0], [0.0, 0.0, 6.9429959610904435]]" supercell_n="1 1 1" MD_pressure_GPa=0.046730359646825564 MD_temperature_K=1966.6666666666667 MD_time_fs=150.0 md_energy=-17.34377895702429 vasp_rundir=run_iter_2/run_VASP_f1uiq_05 REF_energy=-8.93062893 REF_stress="0.7681378798708783 0.7345719739951906 0.8430162560140136 0.01579577666497429 0.0018161523531326266 -0.004799998520862201" pbc="T T T"
Li      -1.44044033       2.51377588       1.23757334      -1.05165883      -0.18381230      -0.92380747       0.83891273      -1.35424860       0.40696882       0.04037554      -0.86311582      -0.08983334
Li       2.44059852      -0.32187657       5.71952699      -1.33040416      -0.54064637       0.28091007      -0.48891501      -1.49708389       1.88591445       0.61596184       1.62733012      -0.03047306
Li       0.76554936       0.66983993       3.95579519      -0.62105108       0.12011415       2.31425354       1.51763381      -0.44554104      -2.49210090      -0.73001930       0.86329789      -0.41128909
Cu       0.68393950       1.13396758      -0.13927228      -1.38944628      -2.59512857       3.11158563       0.08177703      -1.43931434       2.94783186      -0.04193604      -0.97089842       0.28648633
Cu       2.16623729       0.25413517       2.34611613       0.47334654       4.38117373      -1.44133728       0.66528228       0.15227988       2.26674879       0.93958764       0.05817783       0.01044928
Cu      -1.00678672       1.82620882       4.67052433       3.91921381      -1.18170065      -3.34160450      -2.61469084       4.58390801      -5.01536302      -0.82396968      -0.71479160       0.23465987
6
Lattice="3.6685599819486194 0.0 0.0 -1.8342799909743097 3.1770661396744826 0.0 0.0 0.0 6.927855734762857" Properties=species:S:1:pos:R:3:momenta:R:3:md_forces:R:3:REF_forces:R:3 config_type=supercell_bulk_MD buildcell_config_i=2 RSS_min_vol_per_atom=8.0 buildcell_type=narrow gap_rss_group=ALL gap_rss_iter=2 buildcell_symmetry="152 P3_121 P 31 2\" @ 0.01" minim_pressure_GPa=0.046730359646825564 minim_config_type=minim_last_unconverged minim_energy=-19.039408216381005 minim_stress="-0.0001242760557253436 -0.00012427605572534373 -0.0009737908115315812 0.0 0.0 -2.5115688247649736e-20" minim_n_steps=20 E_per_atom_dist_to_nearby=0.15903297673836736 primitive_cell="_JSON [[3.676577300805926, 0.0, 0.0], [-1.838288650402963, 3.1840093414751536, 0.0], [0.0, 0.0, 6.9429959610904435]]" orig_cell="_JSON [[3.676577300805926, 0.0, 0.0], [-1.838288650402963, 3.1840093414751536, 0.0], [0.0, 0.0, 6.9429959610904435]]" supercell_n="1 1 1" MD_pressure_GPa=0.046730359646825564 MD_temperature_K=2233.3333333333335 MD_time_fs=175.0 md_energy=-18.085210356103943 vasp_rundir=run_iter_2/run_VASP_qr0c2w_3 REF_energy=-8.59089378 REF_stress="0.7606853907913421 0.6954064151452135 0.8349173555297956 0.015667822376203285 0.007775491520890879 -0.022128248452594073" pbc="T T T"
Li      -1.51963226       2.41609855       1.61679603      -0.46278715       0.75661845       1.82861931       0.10150274       0.91537065      -1.92888311       0.25834917      -0.02384581      -0.45708634
Li       2.57369616      -0.48506069       5.89917003       1.04413764       1.95071932      -1.15562526      -1.37422369       2.57921345       1.38810565       0.17495750       1.70968489      -0.27639754
Li       1.01992212       0.75793075       4.16217399       2.57847722       0.46242471       1.26912798       0.19146358       0.77755836      -0.37249931      -1.56738006       0.48453893      -0.20876983
Cu       0.57187098       0.92972198      -0.04035090      -4.74046128      -7.71902457      -0.44101766      -0.46787304      -2.15051149      -2.45769335       0.20840314      -0.96549739       0.61334810
Cu       2.20156248       0.41920371       2.35815700       2.05670187       1.68266552       1.27685744       1.15788931      -3.23183594       0.10022819       0.41087365      -0.75258885      -0.07023722
Cu      -0.96533229       1.88144666       4.46956379      -0.47606830       2.86659658      -2.77796181       0.39124109       1.11020497       3.27074193       0.51479660      -0.45229177       0.39914284
6
Lattice="3.002224536032764 1.7333351440462155 4.276369089795301 -3.002224536032764 1.7333351440462155 4.276369089795301 0.0 -3.466670288092431 4.276369089795301" Properties=species:S:1:pos:R:3:momenta:R:3:md_forces:R:3:REF_forces:R:3 config_type=supercell_bulk_MD buildcell_config_i=22 RSS_min_vol_per_atom=10.0 buildcell_type=narrow_even gap_rss_group=ALL gap_rss_iter=2 buildcell_symmetry="148 R-3 -R 3 @ 0.01" minim_pressure_GPa=0.32397492719759236 minim_config_type=minim_last_unconverged minim_energy=-11.283258479137505 minim_stress="-0.02217125844385342 -0.005835835371123552 0.001048396535583196 -0.013988658114929081 -0.019359262369581656 -0.02470036322598617" minim_n_steps=20 E_per_atom_dist_to_nearby=0.3823874816658164 primitive_cell="_JSON [[3.002224536032764, 1.7333351440462155, 4.276369089795301], [-3.002224536032764, 1.7333351440462155, 4.276369089795301], [0.0, -3.466670288092431, 4.276369089795301]]" orig_cell="_JSON [[3.002224536032764, 1.7333351440462155, 4.276369089795301], [-3.002224536032764, 1.7333351440462155, 4.276369089795301], [0.0, -3.466670288092431, 4.276369089795301]]" supercell_n="1 1 1" MD_pressure_GPa=0.32397492719759236 MD_temperature_K=100.0 MD_time_fs=0.0 md_energy=-11.283258478405193 vasp_rundir=run_iter_2/run_VASP_ppnau9ua REF_energy=-10.98659869 REF_stress="0.01399611628261253 0.013996109697820404 -0.007719274872344962 -7.489810951059909e-10 6.204060071127959e-09 8.363622228683567e-10" pbc="T T T"
Li      -1.00303448      -1.70884625       5.34101298       0.30203877       0.48699531       0.08551888       0.01316077      -0.03636323       0.02075265       0.00177686      -0.03936028       0.01508320
Li      -0.97838703       1.72307647       5.34101298      -0.22164589       0.02764615      -0.27485088      -0.03807186       0.00678404       0.02075267      -0.03497998       0.01814272       0.01508380
Li       1.98142151      -0.01423022       5.34101298       0.23555220       0.05981124      -0.10893196       0.02491108       0.02957919       0.02075266       0.03320373       0.02121809       0.01508371
Li      -1.98142151       0.01423022       7.48809429       0.04234781      -0.46091909       0.01537615      -0.02491108      -0.02957919      -0.02075266      -0.03320160      -0.02121985      -0.01508446
Li       1.00303448       1.70884625       7.48809429      -0.30692050      -0.33202541       0.27392256      -0.01316077       0.03636323      -0.02075265      -0.00177683       0.03936199      -0.01508080
Li       0.97838703      -1.72307647       7.48809429      -0.05137239       0.21849180       0.00896525       0.03807186      -0.00678404      -0.02075267       0.03497783      -0.01814266      -0.01508545
6
Lattice="2.9812934203092096 1.7212505587487819 4.246554805346939 -2.9812934203092096 1.7212505587487819 4.246554805346939 0.0 -3.4425011174975637 4.246554805346939" Properties=species:S:1:pos:R:3:momenta:R:3:md_forces:R:3:REF_forces:R:3 config_type=supercell_bulk_MD buildcell_config_i=22 RSS_min_vol_per_atom=10.0 buildcell_type=narrow_even gap_rss_group=ALL gap_rss_iter=2 buildcell_symmetry="148 R-3 -R 3 @ 0.01" minim_pressure_GPa=0.32397492719759236 minim_config_type=minim_last_unconverged minim_energy=-11.283258479137505 minim_stress="-0.02217125844385342 -0.005835835371123552 0.001048396535583196 -0.013988658114929081 -0.019359262369581656 -0.02470036322598617" minim_n_steps=20 E_per_atom_dist_to_nearby=0.05602824191864397 primitive_cell="_JSON [[3.002224536032764, 1.7333351440462155, 4.276369089795301], [-3.002224536032764, 1.7333351440462155, 4.276369089795301], [0.0, -3.466670288092431, 4.276369089795301]]" orig_cell="_JSON [[3.002224536032764, 1.7333351440462155, 4.276369089795301], [-3.002224536032764, 1.7333351440462155, 4.276369089795301], [0.0, -3.466670288092431, 4.276369089795301]]" supercell_n="1 1 1" MD_pressure_GPa=0.32397492719759236 MD_temperature_K=900.0 MD_time_fs=75.0 md_energy=-10.598760309391304 vasp_rundir=run_iter_2/run_VASP_p3w1clb5 REF_energy=-9.81309554 REF_stress="-0.01058611435206882 -0.0031624328642806273 -0.02337676974795612 0.0013447875047160344 -0.0023727544083758986 0.0032895808561782254" pbc="T T T"
Li      -0.97089407      -1.19563603       5.27764937       0.99993971       0.78551561      -0.21675935       0.35136349      -0.54861778      -0.16776489       0.90092551      -0.87955164      -0.23907928
Li      -1.59526140       1.55024323       5.51083593      -0.61628246       0.03632731       0.27383927       0.43697793       0.34506131      -0.58350228       0.59901906       0.85852153      -0.06983742
Li       2.63881684      -0.25106177       5.29696321       0.35326501       0.85551278      -0.63898152      -1.43742495      -0.00603555       0.07738548      -1.75238929      -0.14843829      -0.43332442
Li      -2.05349437      -0.31186934       7.17700082      -0.23640931      -1.05281870      -0.19779423       0.11586993      -0.16116467       0.45938969       0.11064455       0.05536173       1.55356660
Li       1.07626179       1.67804865       7.59088393       0.11985507      -0.34333690      -0.53071459       0.26492543       0.29944710      -0.13756797       0.09675619       0.20378946      -1.30604421
Li       0.90457121      -1.46972474       7.36565999      -0.62036802      -0.28120009       1.31041041       0.26828817       0.07130959       0.35205998       0.04504397      -0.08968278       0.49471873
6
Lattice="2.9649800102887993 1.7118320070820967 4.223317981610686 -2.9649800102887993 1.7118320070820967 4.223317981610686 0.0 -3.4236640141641934 4.223317981610686" Properties=species:S:1:pos:R:3:momenta:R:3:md_forces:R:3:REF_forces:R:3 config_type=supercell_bulk_MD buildcell_config_i=22 RSS_min_vol_per_atom=10.0 buildcell_type=narrow_even gap_rss_group=ALL gap_rss_iter=2 buildcell_symmetry="148 R-3 -R 3 @ 0.01" minim_pressure_GPa=0.32397492719759236 minim_config_type=minim_last_unconverged minim_energy=-11.283258479137505 minim_stress="-0.02217125844385342 -0.005835835371123552 0.001048396535583196 -0.013988658114929081 -0.019359262369581656 -0.02470036322598617" minim_n_steps=20 E_per_atom_dist_to_nearby=0.12478166057077189 primitive_cell="_JSON [[3.002224536032764, 1.7333351440462155, 4.276369089795301], [-3.002224536032764, 1.7333351440462155, 4.276369089795301], [0.0, -3.466670288092431, 4.276369089795301]]" orig_cell="_JSON [[3.002224536032764, 1.7333351440462155, 4.276369089795301], [-3.002224536032764, 1.7333351440462155, 4.276369089795301], [0.0, -3.466670288092431, 4.276369089795301]]" supercell_n="1 1 1" MD_pressure_GPa=0.32397492719759236 MD_temperature_K=1700.0 MD_time_fs=125.0 md_energy=-10.186239797478537 vasp_rundir=run_iter_2/run_VASP_m7zwgh2g REF_energy=-9.72231187 REF_stress="-0.02011202830678579 -0.0082396403296712 -0.003076608362652748 -0.005473414426445237 -0.0031464191304220036 -0.004831749396102535" pbc="T T T"
Li       0.03698426      -1.04746273       4.85696484       0.76507826       0.07254153      -0.40316848      -0.48274337       0.02885423       0.22973780      -1.69934826      -0.29113979       0.13163799
Li      -1.56872805       1.84514417       5.50915188       0.59452811       0.14349032       0.32293043      -0.03270096      -0.35287309      -0.09274548      -0.20807891      -0.53938915       1.01387059
Li       1.83234335      -0.25541305       5.27824542      -1.06743668      -1.12656585       1.11588580      -0.10418351      -0.69125048       0.39232794       1.38859929       0.40166029      -0.41836327
Li      -2.32003458      -1.01745571       7.19103753      -0.05086318      -0.43099933      -0.73391861       0.38805281       0.47041294      -0.43647115      -0.15096404       0.00019997      -0.38580088
Li       1.81288502       1.70254125       6.84938656       1.13302910       0.50047500      -1.26801312      -0.28723728       0.36094526       0.20811863      -0.29791589       0.10566187       0.22274396
Li       0.20655001      -1.22735394       8.32507561      -1.37433561       0.84105833       0.96628399       0.51881232       0.18391114      -0.30096774       0.96770781       0.32300680      -0.56408840
6
Lattice="3.0059549420853244 1.7354888949848468 4.281682680748971 -3.0059549420853244 1.7354888949848468 4.281682680748971 0.0 -3.4709777899696936 4.281682680748971" Properties=species:S:1:pos:R:3:momenta:R:3:md_forces:R:3:REF_forces:R:3 config_type=supercell_bulk_MD buildcell_config_i=22 RSS_min_vol_per_atom=10.0 buildcell_type=narrow_even gap_rss_group=ALL gap_rss_iter=2 buildcell_symmetry="148 R-3 -R 3 @ 0.01" minim_pressure_GPa=0.32397492719759236 minim_config_type=minim_last_unconverged minim_energy=-11.283258479137505 minim_stress="-0.02217125844385342 -0.005835835371123552 0.001048396535583196 -0.013988658114929081 -0.019359262369581656 -0.02470036322598617" minim_n_steps=20 E_per_atom_dist_to_nearby=0.0 primitive_cell="_JSON [[3.002224536032764, 1.7333351440462155, 4.276369089795301], [-3.002224536032764, 1.7333351440462155, 4.276369089795301], [0.0, -3.466670288092431, 4.276369089795301]]" orig_cell="_JSON [[3.002224536032764, 1.7333351440462155, 4.276369089795301], [-3.002224536032764, 1.7333351440462155, 4.276369089795301], [0.0, -3.466670288092431, 4.276369089795301]]" supercell_n="1 1 1" MD_pressure_GPa=0.32397492719759236 MD_temperature_K=1966.6666666666667 MD_time_fs=150.0 md_energy=-13.577583368400092 vasp_rundir=run_iter_2/run_VASP_2e6n4gq0 REF_energy=13.95463883 REF_stress="-0.03571487229755488 0.010600500980671905 -0.18238630145164084 0.054897948939038724 -0.08118893847985928 0.013654434708375943" pbc="T T T"
Li       0.77492093      -0.91998160       5.09540411       3.09307949       0.48508924       1.65571786      -2.33886293       0.24975904      -0.71694056     -37.40138734      18.60036970     -78.86594205
Li      -1.29369353       1.80183817       5.61985218       1.84556842       0.22591146      -0.75624131       2.84357017       1.61709264      -2.03439137      -1.29548722      -1.73394246       1.75037567
Li       0.93231016      -0.99865845       5.42688863      -3.41651562      -2.44092229      -1.04094684       1.38475044      -1.01702867       1.74000153      36.94674613     -18.21956773      79.07434008
Li      -2.30743131      -1.04287151       6.95696099      -0.03602580       0.33130938      -0.79624841      -0.33489905       0.30527408      -0.18086184      -0.41875931       0.41174957       0.07451128
Li       2.17589345       1.97716599       6.57522579       0.66948325       0.53643992      -0.72103367       0.23466657      -0.03056422      -0.21091333      -0.05732702      -0.34232946       0.04139300
Li      -0.28199971      -0.81749261       8.86081243      -2.15558973       0.86217229       1.65875237      -1.78922520      -1.12453288       1.40310557       2.22621476       1.28372038      -2.07467798
6
Lattice="3.1858914744709717 1.8393753003947482 4.537984305089082 -3.1858914744709717 1.8393753003947482 4.537984305089082 0.0 -3.6787506007894963 4.537984305089082" Properties=species:S:1:pos:R:3:momenta:R:3:md_forces:R:3:REF_forces:R:3 config_type=supercell_bulk_MD buildcell_config_i=22 RSS_min_vol_per_atom=10.0 buildcell_type=narrow_even gap_rss_group=ALL gap_rss_iter=2 buildcell_symmetry="148 R-3 -R 3 @ 0.01" minim_pressure_GPa=0.32397492719759236 minim_config_type=minim_last_unconverged minim_energy=-11.283258479137505 minim_stress="-0.02217125844385342 -0.005835835371123552 0.001048396535583196 -0.013988658114929081 -0.019359262369581656 -0.02470036322598617" minim_n_steps=20 E_per_atom_dist_to_nearby=0.0 primitive_cell="_JSON [[3.002224536032764, 1.7333351440462155, 4.276369089795301], [-3.002224536032764, 1.7333351440462155, 4.276369089795301], [0.0, -3.466670288092431, 4.276369089795301]]" orig_cell="_JSON [[3.002224536032764, 1.7333351440462155, 4.276369089795301], [-3.002224536032764, 1.7333351440462155, 4.276369089795301], [0.0, -3.466670288092431, 4.276369089795301]]" supercell_n="1 1 1" MD_pressure_GPa=0.32397492719759236 MD_temperature_K=2233.3333333333335 MD_time_fs=175.0 md_energy=-9.918605313826891 vasp_rundir=run_iter_2/run_VASP_g2d9ijxs REF_energy=-0.13973602 REF_stress="-0.052399918311178496 -0.03309817475898597 -0.015138453660551632 -0.01011262572406649 0.000772070259883298 -0.002649265371180231" pbc="T T T"
Li       1.18404074      -0.90706332       5.85812686      -1.17780311      -0.51760749       0.50609633      -0.10828129       0.51162705      -0.49646813       2.97917433       5.16123962       3.07817388
Li      -0.31209507       2.51858019       5.45332942       2.02319360       1.92450622       0.69050657      -2.86215271       1.43784571       3.19866186       6.15812795      -0.86318248      -4.00982683
Li       0.49164957      -1.61875312       5.23929139       1.79897913       0.49122262      -2.49678068       1.63639081       1.54278379      -1.19114774      -4.47658292      -1.51453668      -4.09088653
Li      -2.70622238      -1.25962363       7.36573081      -1.11362798      -1.02282414       1.18243379      -0.08921213       0.51641113       1.50282993       0.30072953       0.20159201       0.32155579
Li       2.60160519       2.29664458       6.44318378       0.46013484       0.07758146      -2.55490431      -1.04470703      -0.94036756      -1.22874186      -0.60953247      -0.91879721       0.65738001
Li      -1.25897804      -1.02978471      10.48219649      -1.99087648      -0.95287867       2.67264829       2.46796235      -3.06830011      -1.78513405      -4.35191641      -2.06631527       4.04360368
6
Lattice="3.301284334000603 1.9059973989067422 4.7023499119093115 -3.301284334000603 1.9059973989067422 4.7023499119093115 0.0 -3.8119947978134845 4.7023499119093115" Properties=species:S:1:pos:R:3:momenta:R:3:md_forces:R:3:REF_forces:R:3 config_type=supercell_bulk_MD buildcell_config_i=22 RSS_min_vol_per_atom=10.0 buildcell_type=narrow_even gap_rss_group=ALL gap_rss_iter=2 buildcell_symmetry="148 R-3 -R 3 @ 0.01" minim_pressure_GPa=0.32397492719759236 minim_config_type=minim_last_unconverged minim_energy=-11.283258479137505 minim_stress="-0.02217125844385342 -0.005835835371123552 0.001048396535583196 -0.013988658114929081 -0.019359262369581656 -0.02470036322598617" minim_n_steps=20 E_per_atom_dist_to_nearby=0.0 primitive_cell="_JSON [[3.002224536032764, 1.7333351440462155, 4.276369089795301], [-3.002224536032764, 1.7333351440462155, 4.276369089795301], [0.0, -3.466670288092431, 4.276369089795301]]" orig_cell="_JSON [[3.002224536032764, 1.7333351440462155, 4.276369089795301], [-3.002224536032764, 1.7333351440462155, 4.276369089795301], [0.0, -3.466670288092431, 4.276369089795301]]" supercell_n="1 1 1" MD_pressure_GPa=0.32397492719759236 MD_temperature_K=2500.0 MD_time_fs=200.0 md_energy=-8.09520674074206 vasp_rundir=run_iter_2/run_VASP_6vot6ic0 REF_energy=-1.07797542 REF_stress="-0.015884036547289506 -0.02518254576692922 -0.0372631226014205 -0.006746142597314325 0.0016547450734090755 -0.008635302850126323" pbc="T T T"
Li       1.01165737      -1.23287591       6.00978871      -1.82813626      -1.93895728      -1.57205575      -2.49350936      -0.37477073      -2.98431566      -1.75007898       2.05032534       6.32535023
Li      -0.52922449       3.22411779       6.28111795      -0.02985268      -1.03081290       1.17547882       1.75310882      -2.58129246      -0.16142641       4.11113842       3.71549465      -0.02107530
Li       1.14853542      -1.39047435       4.87515051       1.08709136       0.58902416       0.08436134      -0.99743417      -0.84012635       1.90006854       0.76824626       0.25581117      -6.51730452
Li      -2.88766565      -1.57759523       8.46601341       1.82103019      -1.02988399       2.74961728       3.40128398       0.13701617      -0.66640223       0.46162677      -0.35296783      -0.42468817
Li       2.46032143       2.57585570       5.76526942      -0.61714581       2.62061437      -1.03086550       0.49890720       2.28071395       2.32115312      -0.63899878      -0.28952909       0.65464874
Li      -1.20362409      -1.59902801      10.92380920      -0.43298681       0.79001563      -1.40653619      -2.16235647       1.37845942      -0.40907736      -2.95193368      -5.37913424      -0.01693099
7