8
Lattice="3.08279150153381 1.7798505032660357 2.7699068448712256 -3.08279150153381 1.7798505032660357 2.7699068448712256 0.0 -3.5597010065320713 2.7699068448712256" Properties=species:S:1:pos:R:3:momenta:R:3:md_forces:R:3:REF_forces:R:3 config_type=supercell_bulk_MD buildcell_config_i=3 RSS_min_vol_per_atom=8.0 buildcell_type=narrow gap_rss_group=ALL gap_rss_iter=2 buildcell_symmetry="146 R3 R 3 @ 0.01" minim_pressure_GPa=0.4065600075391511 minim_config_type=minim_last_unconverged minim_energy=-35.536629003676715 minim_stress="0.7348425651882046 0.7372670951557059 0.7395819686968431 -0.07560732076465965 -0.07679189023897699 -0.07797645862615059" minim_n_steps=20 E_per_atom_dist_to_nearby=0.0 primitive_cell="_JSON [[3.209128724164093, 1.8527913327602992, 2.883421604968213], [-3.209128724164093, 1.8527913327602992, 2.883421604968213], [0.0, -3.7055826655205983, 2.883421604968213]]" orig_cell="_JSON [[3.209128724164093, 1.8527913327602992, 2.883421604968213], [-3.209128724164093, 1.8527913327602992, 2.883421604968213], [0.0, -3.7055826655205983, 2.883421604968213]]" supercell_n="1 1 1" MD_pressure_GPa=0.4065600075391511 MD_temperature_K=366.6666666666667 MD_time_fs=25.0 md_energy=-50.292839761273804 vasp_rundir=run_iter_2/run_VASP_by7140l6 REF_energy=0.08283406 REF_stress="0.6275967390211465 0.659448454879114 0.9484637867398346 -0.03064852654976402 0.009388951969907562 -0.008718137331841411" pbc="T T T"
Li       1.60772319      -0.46511822       4.14946315      -0.25431023      -2.78918648       2.78845574      -1.28552446      -3.29419099       2.06476410       1.14927601       8.67407539       0.05187838
Li      -0.32640845       1.61633804       3.92939304       2.67012967       0.20481523       1.92187763       4.34325263      -1.53892563       0.89815861      -8.65124947      -3.75136904      -1.22946030
Li      -1.20046527      -0.96781988       3.84041279      -2.08072242       2.92363430       1.09653896      -3.15963468       4.80986958       0.40643510       8.26998058      -5.10174062      -1.83637574
Li       0.00603860       0.05450518       5.72656417      -0.24979096       0.35824703       1.98860877      -0.56902127       0.53918216       2.80647264      -0.44715434      -0.24453802      -2.84259908
Cu       1.35496552      -1.84169091       4.09345657      -0.12072466       4.84396801      -0.51701962       0.17925915       7.30693559      -0.11891741      -1.95708912      -7.33337817       0.96385235
Cu       0.90360222       2.07712818       4.06915674      -5.47848544      -4.18015214      -2.07153230      -7.88438119      -4.09114292      -2.62946954       7.75104390       2.67367847       2.34555228
Cu      -2.26928342      -0.24910214       4.08093903       5.20795752      -1.13053319      -2.18736814       7.56030799      -4.53424466      -1.86788129      -6.02008345       4.87753402       3.31723737
Cu       0.00122645      -0.01231727       1.07827207       0.30594651      -0.23079277      -3.01956104       0.81574183       0.80251687      -1.55956221      -0.09472411       0.20573797      -0.77008525
8
Lattice="4.915131626521769 0.0 0.0 1.06861579046342 3.727904308544123 0.0 0.3755700113789576 1.2836698458586124 5.312658309682834" Properties=species:S:1:pos:R:3:momenta:R:3:md_forces:R:3:REF_forces:R:3 config_type=supercell_bulk_MD buildcell_config_i=42 RSS_min_vol_per_atom=7.0 buildcell_type=narrow gap_rss_group=ALL gap_rss_iter=2 buildcell_symmetry="1 P1 P 1 @ 0.01" minim_pressure_GPa=0.04890342592771427 minim_config_type=minim_last_unconverged minim_energy=-22.53823595132764 minim_stress="0.8786583891994129 1.0096252262133814 0.5626264178037635 -0.04243312831977653 0.14723357844273494 -0.16989747202609362" minim_n_steps=20 E_per_atom_dist_to_nearby=0.6953132391770875 primitive_cell="_JSON [[2.477638637157113, 0.0, 0.0], [1.07734399479429, 3.7583529607363135, 0.0], [0.3786375795630674, 1.2941545615141539, 5.356050862629203]]" orig_cell="_JSON [[2.477638637157113, 0.0, 0.0], [1.07734399479429, 3.7583529607363135, 0.0], [0.3786375795630674, 1.2941545615141539, 5.356050862629203]]" supercell_n="2 1 1" MD_pressure_GPa=0.04890342592771427 MD_temperature_K=633.3333333333334 MD_time_fs=50.0 md_energy=-75.83513329567326 vasp_rundir=run_iter_2/run_VASP_ngnf7fhv REF_energy=6.90432212 REF_stress="0.9398169079374947 1.2821754563078442 0.9681486703978248 0.2056400983840895 -0.06570501415595242 0.04791044858192453" pbc="T T T"
Li       1.17056003       0.50113465       1.03828786      -0.28681634       0.45150511      -2.97145973      -1.29972184       7.62637242       0.08441277      -0.04872575      -5.93970077      -1.87878222
Cu       1.92764496       3.22996012       4.28980204       0.93005785       3.57737036      -7.10590664       1.62679813       2.08642293      -4.95311479      -0.46284472       0.42882456      -1.19541538
Cu       0.35747328       1.18935744       0.67332392       1.00263681      -8.44929326       2.71612771       0.46716301      -8.20766584       2.00539889      -2.96278808       5.63442570      -2.68194497
Cu       3.09561468       4.02710019       2.51213853      -0.96623086       5.70665518       7.20276283      -0.33594308       0.90481961       4.64484521      -0.29332306      -0.62595978       5.55587745
Li       3.59733225       0.44377800       1.34903066       0.26726780      -2.00577049      -2.37790643       1.01637793       5.62734949      -2.59638779       0.54339758      -6.31803740      -2.71423264
Cu       4.33823165       3.23184669       4.27783531       0.34454572       3.86703107      -7.47336500       0.60161078       1.51691297      -5.02089573       0.60410074       0.15683886      -0.47878796
Cu       2.79256432       1.17962750       0.71410215       1.80849616      -9.24848880       3.32985786       2.04594076     -10.54009720       3.37873473      -1.58732080       7.70456681      -5.30563037
Cu       5.54140718       4.04209297       2.48573575      -3.09995714       6.10099082       6.67988940      -4.12222570       0.98588562       2.45700671       4.20750410      -1.04095797       8.69891609
8
Lattice="4.897381375508909 0.0 0.0 1.064756646912781 3.7144415485904463 0.0 0.374213697350884 1.279034067264468 5.293472451458081" Properties=species:S:1:pos:R:3:momenta:R:3:md_forces:R:3:REF_forces:R:3 config_type=supercell_bulk_MD buildcell_config_i=42 RSS_min_vol_per_atom=7.0 buildcell_type=narrow gap_rss_group=ALL gap_rss_iter=2 buildcell_symmetry="1 P1 P 1 @ 0.01" minim_pressure_GPa=0.04890342592771427 minim_config_type=minim_last_unconverged minim_energy=-22.53823595132764 minim_stress="0.8786583891994129 1.0096252262133814 0.5626264178037635 -0.04243312831977653 0.14723357844273494 -0.16989747202609362" minim_n_steps=20 E_per_atom_dist_to_nearby=0.47203343879894355 primitive_cell="_JSON [[2.477638637157113, 0.0, 0.0], [1.07734399479429, 3.7583529607363135, 0.0], [0.3786375795630674, 1.2941545615141539, 5.356050862629203]]" orig_cell="_JSON [[2.477638637157113, 0.0, 0.0], [1.07734399479429, 3.7583529607363135, 0.0], [0.3786375795630674, 1.2941545615141539, 5.356050862629203]]" supercell_n="2 1 1" MD_pressure_GPa=0.04890342592771427 MD_temperature_K=900.0 MD_time_fs=75.0 md_energy=-81.39763920908996 vasp_rundir=run_iter_2/run_VASP_q4ok31ym REF_energy=11.14637551 REF_stress="0.6032874265868204 1.3701786816386432 1.1416986588386497 0.1362177966378175 0.04016220018107008 -0.09718208284817835" pbc="T T T"
Li       1.19994164       1.17071278       0.75998010       0.46610688      -0.47163317       0.13630896       0.24852264      -2.29258259       0.77167435      16.08423927       4.23800109       3.39419074
Cu       1.90805490       3.18370033       4.19573400      -2.47542568      -5.45405432       3.78097246      -1.69318816      -1.26882076       2.21717400       0.20174596       0.04928987      -0.39124410
Cu       0.33655734       1.02131824       0.65384005      -2.87452547       4.58459502      -3.96841907      -1.70601336       8.58552992      -0.32047985     -14.00164971      -5.25015569      -3.14911272
Cu       3.08735078       4.15185660       2.64648784       2.22102837       0.34898624      -1.22328458       1.99202844      -6.04799305      -2.16831431      -1.02204773       0.50326860       0.29942535
Li       3.68733717       1.27954318       0.67910063       2.28914772       1.20523468       1.19299004       1.18052625      -4.34548669       1.74033108       7.40231774       6.08421598       0.51549009
Cu       4.36612016       3.17415752       4.20432766       1.00091763      -5.79875511       5.65724869      -1.51094525      -1.58095389       4.68378335       0.04866380       0.02771153      -1.12230962
Cu       2.82632267       0.98295803       0.73591417      -2.08953681       6.20493802      -3.13051901      -1.41722135      11.37821753      -3.54016441      -9.19137886      -5.75938685      -0.41284111
Cu       5.44841585       4.16018790       2.56525130       1.46228737      -0.61931136      -2.44529749       2.90629079      -4.42791047      -3.38400422       0.47810954       0.10705546       0.86640137
8
Lattice="4.855880733078985 0.0 0.0 1.0557338485047603 3.682965194450292 0.0 0.3710425927022237 1.2681954718169735 5.248615314433952" Properties=species:S:1:pos:R:3:momenta:R:3:md_forces:R:3:REF_forces:R:3 config_type=supercell_bulk_MD buildcell_config_i=42 RSS_min_vol_per_atom=7.0 buildcell_type=narrow gap_rss_group=ALL gap_rss_iter=2 buildcell_symmetry="1 P1 P 1 @ 0.01" minim_pressure_GPa=0.04890342592771427 minim_config_type=minim_last_unconverged minim_energy=-22.53823595132764 minim_stress="0.8786583891994129 1.0096252262133814 0.5626264178037635 -0.04243312831977653 0.14723357844273494 -0.16989747202609362" minim_n_steps=20 E_per_atom_dist_to_nearby=0.058145001207641656 primitive_cell="_JSON [[2.477638637157113, 0.0, 0.0], [1.07734399479429, 3.7583529607363135, 0.0], [0.3786375795630674, 1.2941545615141539, 5.356050862629203]]" orig_cell="_JSON [[2.477638637157113, 0.0, 0.0], [1.07734399479429, 3.7583529607363135, 0.0], [0.3786375795630674, 1.2941545615141539, 5.356050862629203]]" supercell_n="2 1 1" MD_pressure_GPa=0.04890342592771427 MD_temperature_K=1966.6666666666667 MD_time_fs=150.0 md_energy=-85.17821429918371 vasp_rundir=run_iter_2/run_VASP_s97ximta REF_energy=13.05048069 REF_stress="0.6315857727749963 1.3975389154860898 1.0421744281702603 0.1932834300474147 0.00029193680891838916 -0.016026996422640598" pbc="T T T"
Li       1.00231265       1.18593433       0.80577688       0.23809589      -1.16798255       0.26979541       0.81509616      -2.70153774       1.11248791       7.48880109       2.07833814       2.36110176
Cu       1.98999459       3.13106976       4.11877368      -1.29466653       1.87525656      -0.69479672      -3.63445137      -0.35799704       6.42920782      -1.77813631      -0.95078859       1.05423945
Cu       0.08294286       1.09493984       0.67429809       2.98191634       5.66654738      -0.06159498       2.90013647       2.56535238      -3.76430326       1.29237289      -0.39147082      -6.82435391
Cu       3.18494053       4.01931207       2.63322156      -4.03153309      -5.21348601       1.05307493       0.18372629       2.55432036      -4.99800974      -0.20886358       0.58756995      -0.13592434
Li       3.60004672       1.12358930       0.79356438       1.59546561       0.02600271       0.19163735      -2.03091550      -1.03701096       0.27556034      -6.98559081       0.61604879       1.60796971
Cu       4.33235917       3.15722789       4.19439548      -2.04560986       1.09512508       0.69724048       2.62410172      -4.36418833       3.06125469       1.00729823       0.46545213      -1.42615959
Cu       2.57385424       1.06550589       0.74900241       5.76636238       5.16300072      -2.38809805       0.27867698       4.75263216      -7.06537327       1.25036547      -0.52972830      -2.10111553
Cu       5.68302140       4.07792745       2.48590568      -3.21003074      -7.44446388       0.93274159      -1.13637076      -1.41157083       4.94917551      -2.06624697      -1.87542130       5.46424245
7
Lattice="2.831505096565006 0.00491638531433578 0.06406704481489729 -0.3889585058060402 5.8370285844593095 -0.04525334432405624 -0.742719190331643 -0.7669283468104776 5.916620341688599" Properties=species:S:1:pos:R:3:minim_forces:R:3:momenta:R:3:md_forces:R:3:REF_forces:R:3 config_type=supercell_vacancy_minim_last_unconverged_MD buildcell_config_i=16 RSS_min_vol_per_atom=8.0 buildcell_type=wide gap_rss_group=ALL gap_rss_iter=2 buildcell_symmetry="1 P1 P 1 @ 0.01" minim_pressure_GPa=0.7115134748964146 minim_config_type=minim_last_unconverged minim_n_steps=20 E_per_atom_dist_to_nearby=0.0 primitive_cell="_JSON [[2.926859576844499, 0.0, 0.0], [-0.41221651485694494, 5.851094483624412, 0.0], [-0.8996295672395576, -0.7306442913285347, 5.885444841172236]]" orig_cell="_JSON [[2.926859576844499, 0.0, 0.0], [-0.41221651485694494, 5.851094483624412, 0.0], [-0.8996295672395576, -0.7306442913285347, 5.885444841172236]]" supercell_n="1 1 1" vacancy_Z=3 vacancy_pos="_JSON [[0.5900788055533349, 2.061667481505235, 2.888210421448491]]" minim_energy=-37.22757091277661 minim_stress="0.1566901265286497 0.198908559831328 0.22187253612892655 -0.019089044914444495 0.006996111737710437 -0.003787302357096772" MD_pressure_GPa=0.7115134748964146 MD_temperature_K=1250.0 MD_time_fs=200.0 md_energy=-49.899544661542656 vasp_rundir=run_iter_2/run_VASP_6mgrjz9n REF_energy=0.45249917 REF_stress="0.9313638617975271 0.7395431143405186 0.6810140396413903 0.13955766903423786 0.03835897820011431 -0.039185895802580924" pbc="T T T"
Li      -1.53393290       1.31855791       5.45358351      -1.33086879      -0.74755557       0.27608722       1.24992697      -1.11150743       0.90258087      -0.40767433      -1.76784526      -2.16505052       0.58351904      -8.61826443      -1.51487158
Li      -0.34033432       4.98841095       4.70218404       0.03301062       1.53194675       0.65256319       0.86735991      -0.62261442      -1.33145893      -0.32950169       2.00427730      -0.67685548       0.07284085       0.15387891      -1.14531153
Li      -0.20969732       0.48641392       2.52730332      -2.65534499       1.39102266       0.15904993      -0.19539220       2.09993572       0.95913584       0.01536193      -0.93182712       0.95259553      -0.01527538       0.18407562      -0.19815167
Cu       0.32339415       4.62599090       0.53732552       3.16577876       3.17169943       0.61019938      -2.28882472       0.01879610       0.44856498       1.92018340       4.83504633       1.31140274       0.60201409       1.66246549       0.28067378
Cu       1.44184823       2.45635451       4.96440943       0.99606113      -1.72361174      -1.98554183      -2.03329443       0.46050829       0.58297429       5.59407098      -3.21257506      -0.12955363       1.44597949      11.15180084      -9.04256006
Cu       1.74255438       2.00882711       0.59984155      -0.61490603       1.13499539       2.95534656       2.10531352      -2.17829707       0.18270311      -1.87075245       1.30462624      -0.10738832      -2.60269509      -3.20130204       8.99503017
Cu       0.30758684       3.22697273       2.11182084       0.40626930      -4.75849691      -2.66770446       0.29491095       1.33317880      -1.74450016      -4.92168784      -2.23170243       0.81484968      -0.08638299      -1.33265440       2.62519090
7
Lattice="2.9368760993916108 -0.031193909146074828 0.11600211209972286 0.6018654351345231 4.240390207710195 0.020928462396661473 0.9856694802527953 -0.11685065865644495 6.043903512176806" Properties=species:S:1:pos:R:3:minim_forces:R:3:momenta:R:3:md_forces:R:3:REF_forces:R:3 config_type=supercell_vacancy_minim_last_unconverged_MD buildcell_config_i=51 RSS_min_vol_per_atom=7.0 buildcell_type=wide gap_rss_group=ALL gap_rss_iter=2 buildcell_symmetry="1 P1 P 1 @ 0.01" minim_pressure_GPa=0.014443639183586973 minim_config_type=minim_last_unconverged minim_n_steps=20 E_per_atom_dist_to_nearby=0.023513942766202334 primitive_cell="_JSON [[3.0558089343356216, 0.0, 0.0], [0.6740303889956316, 4.4995311455118765, 0.0], [0.7837816387991275, -0.10863215071592443, 6.09264234671965]]" orig_cell="_JSON [[3.0558089343356216, 0.0, 0.0], [0.6740303889956316, 4.4995311455118765, 0.0], [0.7837816387991275, -0.10863215071592443, 6.09264234671965]]" supercell_n="1 1 1" vacancy_Z=29 vacancy_pos="_JSON [[2.2818742261775964, 4.161691077012181, 3.89844922721261]]" minim_energy=-46.26580757504242 minim_stress="0.2581164137283125 0.6375652048581394 0.010966441786096197 -0.2408154517842333 -0.1986134368140283 0.23934926918794464" MD_pressure_GPa=0.014443639183586973 MD_temperature_K=583.3333333333334 MD_time_fs=100.0 md_energy=-65.10038960537096 vasp_rundir=run_iter_2/run_VASP_u1v57vq_ REF_energy=8.35019941 REF_stress="1.161491970299009 1.0191424478623874 1.0287471721607087 0.1451506789019799 -0.10129728864035113 0.10674924384716127" pbc="T T T"
Li       1.33000715       2.80430105       3.61950531      -1.59735811      -0.71912198       0.46727160      -0.92500029       0.03255017      -0.11938709      -1.30156181      -1.08490125      -1.73927969      -0.02080617       0.48719224      -0.22287231
Li       1.47992102       2.96595741       1.21701090       3.58746045       7.93889955       2.72338936       0.90137311       0.33904835       0.40174756      -1.80932142       0.49198823      -0.47398836      -1.01499375      -7.66530991       3.57153242
Cu       3.14969044       0.50729017       5.54229186      -0.25767694       3.83483009       4.67679215      -0.98370832       1.40401444      -1.50306614      -0.00027601      -6.33565375       2.66051031      -1.31896794       0.58681968      -1.33480170
Cu       2.29783098       2.60736439       1.90371717      -2.94021417      -3.38040123      -6.51823291       1.50787144       0.47611026      -0.29851542      -3.47823868      -3.97315991      -0.72811460       9.61371153      -6.40778167       8.27202525
Cu       1.92665163       0.50402208       1.98964176      -6.36501139       5.08618963      -4.57895181       0.55235597      -3.15366305      -0.02749453      -0.37402962       3.42834564      -1.92002110       0.10156020       2.37716736       2.58745294
Cu       3.53823032       2.53692303       5.45080252       4.80256365      -5.51387124       6.07780583       2.64747721       1.61874966       1.78602481       3.10540354       4.82722872      -0.25901186       0.25813603      -1.72887653      -1.62097567
Cu       1.07513619       3.55726595       0.64759301       2.77023650      -7.24652482      -2.84807422      -3.70036912      -0.71680982      -0.23930919       3.85802400       2.64615233       2.45990532      -7.61863990      12.35078884     -11.25236092
7
Lattice="2.9305723083118105 -0.031126953687429543 0.11575312199774214 0.60057357472474 4.231288518343122 0.02088354097331734 0.9835538123570555 -0.11659984721095702 6.030930712590494" Properties=species:S:1:pos:R:3:minim_forces:R:3:momenta:R:3:md_forces:R:3:REF_forces:R:3 config_type=supercell_vacancy_minim_last_unconverged_MD buildcell_config_i=51 RSS_min_vol_per_atom=7.0 buildcell_type=wide gap_rss_group=ALL gap_rss_iter=2 buildcell_symmetry="1 P1 P 1 @ 0.01" minim_pressure_GPa=0.014443639183586973 minim_config_type=minim_last_unconverged minim_n_steps=20 E_per_atom_dist_to_nearby=0.03661145761906148 primitive_cell="_JSON [[3.0558089343356216, 0.0, 0.0], [0.6740303889956316, 4.4995311455118765, 0.0], [0.7837816387991275, -0.10863215071592443, 6.09264234671965]]" orig_cell="_JSON [[3.0558089343356216, 0.0, 0.0], [0.6740303889956316, 4.4995311455118765, 0.0], [0.7837816387991275, -0.10863215071592443, 6.09264234671965]]" supercell_n="1 1 1" vacancy_Z=29 vacancy_pos="_JSON [[2.2818742261775964, 4.161691077012181, 3.89844922721261]]" minim_energy=-46.26580757504242 minim_stress="0.2581164137283125 0.6375652048581394 0.010966441786096197 -0.2408154517842333 -0.1986134368140283 0.23934926918794464" MD_pressure_GPa=0.014443639183586973 MD_temperature_K=983.3333333333334 MD_time_fs=150.0 md_energy=-65.00870700140095 vasp_rundir=run_iter_2/run_VASP_9w05sovt REF_energy=9.90842928 REF_stress="1.0448047728122236 0.9733949944428001 0.8867140350235724 0.21005700165688002 -0.20803962321804967 0.17453889878281267" pbc="T T T"
Li       1.20477436       2.78382955       3.41464224      -1.59735811      -0.71912198       0.46727160      -0.81779689      -0.15893388       0.19826028       0.82968324       0.50551278       2.40996489      -1.00780985       0.40132360       1.72965248
Li       1.50901991       3.21587646       1.23487071       3.58746045       7.93889955       2.72338936       1.03492241       0.19575460       0.23859341       1.31396949      -0.60029744      -1.30895887       9.02017922     -10.29462985      17.77495329
Cu       3.11862156       0.42552296       5.57193421      -0.25767694       3.83483009       4.67679215      -0.22858793      -2.79920681       0.69200785       0.47494278       3.09461149      -5.15767851      -0.98917014       2.74438971      -2.64279694
Cu       2.32303319       2.59782096       1.86832429      -2.94021417      -3.38040123      -6.51823291      -1.44313122      -3.90461389       0.59657522      -6.23628225      -1.86683263       3.82279338      10.60635879      -9.50984266       7.87181357
Cu       1.95214619       0.52041259       1.97245199      -6.36501139       5.08618963      -4.57895181       2.29748198       2.71887283      -1.91740378      -4.88963026       1.09911783      -0.05853803       0.20720872       2.86203077       3.36206576
Cu       3.50792110       2.52389188       5.47263154       4.80256365      -5.51387124       6.07780583      -1.16076920       0.69771100      -2.35600139       4.10852265      -4.40176076      -4.77211313       0.72451142      -2.88032202      -2.85762075
Cu       1.06992744       3.59795816       0.63465088       2.77023650      -7.24652482      -2.84807422       0.31788086       3.25041614       2.54796841       4.39879434       2.16964872       5.06453029     -18.56127816      16.67705045     -25.23806739
7
Lattice="2.9238759766147586 -0.03105582887470315 0.11548862714202138 0.5992012694403982 4.221620061658266 0.020835822267667347 0.9813064006311056 -0.11633341759564411 6.017150089475032" Properties=species:S:1:pos:R:3:minim_forces:R:3:momenta:R:3:md_forces:R:3:REF_forces:R:3 config_type=supercell_vacancy_minim_last_unconverged_MD buildcell_config_i=51 RSS_min_vol_per_atom=7.0 buildcell_type=wide gap_rss_group=ALL gap_rss_iter=2 buildcell_symmetry="1 P1 P 1 @ 0.01" minim_pressure_GPa=0.014443639183586973 minim_config_type=minim_last_unconverged minim_n_steps=20 E_per_atom_dist_to_nearby=0.0 primitive_cell="_JSON [[3.0558089343356216, 0.0, 0.0], [0.6740303889956316, 4.4995311455118765, 0.0], [0.7837816387991275, -0.10863215071592443, 6.09264234671965]]" orig_cell="_JSON [[3.0558089343356216, 0.0, 0.0], [0.6740303889956316, 4.4995311455118765, 0.0], [0.7837816387991275, -0.10863215071592443, 6.09264234671965]]" supercell_n="1 1 1" vacancy_Z=29 vacancy_pos="_JSON [[2.2818742261775964, 4.161691077012181, 3.89844922721261]]" minim_energy=-46.26580757504242 minim_stress="0.2581164137283125 0.6375652048581394 0.010966441786096197 -0.2408154517842333 -0.1986134368140283 0.23934926918794464" MD_pressure_GPa=0.014443639183586973 MD_temperature_K=1250.0 MD_time_fs=200.0 md_energy=-65.26498720473438 vasp_rundir=run_iter_2/run_VASP_8i9pan7p REF_energy=8.71011302 REF_stress="1.1706569181639128 0.9743934239038423 1.0220937329633015 0.12652774469320233 -0.11052059775506119 0.06777564279759588" pbc="T T T"
Li       1.19198544       2.82033677       3.57931984      -1.59735811      -0.71912198       0.46727160       1.48591695      -0.40540567       0.17176709       0.91022173      -1.35573982      -0.86342070       0.01830090       0.71495510      -0.76793825
Li       1.61262787       3.25557084       1.36958985       3.58746045       7.93889955       2.72338936       0.70906605      -0.91494831      -0.27855454      -0.48328454       1.49750832      -3.22247826      -1.09288130      -0.46780168       3.87909323
Cu       3.09259684       0.49125671       5.53754075      -0.25767694       3.83483009       4.67679215      -1.13881011      -4.14132793       0.79891355       2.05974433      -6.02598793      -2.71817816      -0.89693857       0.95924366      -2.15748973
Cu       2.30451516       2.51980480       1.90426116      -2.94021417      -3.38040123      -6.51823291      -1.47186703       5.42938525      -3.86627927      -2.40363361       4.53648078      -4.00663103       8.84587139      -8.74992373       6.42158240
Cu       1.88893984       0.50196384       1.91869314      -6.36501139       5.08618963      -4.57895181       2.52474120       1.83561262      -0.57711961      -2.08284758       0.29198619       5.07870278       1.27081604       3.59478638       4.44296979
Cu       3.53242676       2.50527880       5.41811059       4.80256365      -5.51387124       6.07780583      -1.68958892      -1.27411800      -1.34716062       5.83829178       4.33298591       6.90523433       0.38454212      -1.55742501      -0.51882816
Cu       1.11521999       3.61539720       0.67206617       2.77023650      -7.24652482      -2.84807422      -0.41945815      -0.52919796       5.09843341      -3.83849211      -3.27723345      -1.17322896      -8.52971057       5.50616527     -11.29938929
7
Lattice="-76.8519792430946 -1.0082670587407891 -0.31676040575 37.55280473487897 -67.04857338350159 0.43029965579092966 -0.4098475079677192 0.4062571843858126 -99.9631170647231" Properties=species:S:1:pos:R:3:minim_forces:R:3:momenta:R:3:md_forces:R:3 config_type=supercell_interstitial_minim_last_unconverged_MD buildcell_config_i=0 RSS_min_vol_per_atom=8.0 buildcell_type=narrow gap_rss_group=ALL gap_rss_iter=2 buildcell_symmetry="145 P3_2 P 32 @ 0.01" minim_pressure_GPa=0.22523662841918016 minim_config_type=minim_last_unconverged minim_n_steps=20 E_per_atom_dist_to_nearby=0.0 primitive_cell="_JSON [[4.285269707886118, 0.0, 0.0], [-2.142634853943059, 3.711152429097299, 0.0], [0.0, 0.0, 5.544591681487686]]" orig_cell="_JSON [[4.285269707886118, 0.0, 0.0], [-2.142634853943059, 3.711152429097299, 0.0], [0.0, 0.0, 5.544591681487686]]" supercell_n="1 1 1" interstitial=6 minim_energy=-45.505175677891884 minim_stress="0.9485338796590826 0.9820082945314339 0.7475051584743719 -0.05566951814308854 -0.05881265521982026 0.03306603479745492" MD_pressure_GPa=0.22523662841918016 MD_temperature_K=983.3333333333334 MD_time_fs=150.0 md_energy=4.630662025031943 vasp_rundir=run_iter_2/run_VASP_9rodopbf DFT_FAILED_VASP=T pbc="T T T"
Li      -4.45470523     -78.35670907     -32.65302782       0.75677319       2.12864446       1.37388530       0.16316075      -0.26357114       1.45058148       0.00000000       0.00000000       0.00000000
Li     -34.78616755     -36.92434744     -61.85941262       2.27215705       0.04915772       1.55390857      -0.01723447      -0.11754841       0.37843545       0.00000000       0.00000000       0.00000000
Li      25.79832968     -29.38646436     -92.19620144      -2.36280042      -1.72468452      -0.53971890       0.49876696       0.30649260       0.87439723       0.00000000       0.00000000       0.00000000
Cu     -39.21762395     -36.45709550     -82.50708623       3.78824376      -2.00798877       1.77312246      -0.36883803      -2.82755207      -1.60086601       0.00000000       0.00000000       0.00000000
Cu     -49.49816885     -14.47829154     -18.60299504      -3.90197320      -3.94168334      -0.60577435      -1.48064083       0.39144920      -0.94536572       0.00000000       0.00000000       0.00000000
Cu     -29.95644856      -9.75604790     -56.08873448      -0.00022312       0.22795341      -0.50222719       2.67334806       1.76480341      -1.74817922       0.00000000       0.00000000       0.00000000
Li      25.58881152     -89.58163681     -79.86623494      -0.55217727       5.26860104      -3.05319589      -1.46856243       0.74592641       1.59099679       0.00000000       0.00000000       0.00000000
7
Lattice="-76.80594870040336 -1.0076631565336036 -0.3165706819000306 37.530312458186216 -67.00841459709282 0.43004192753368825 -0.40960202953764885 0.4060138563823747 -99.90324409108064" Properties=species:S:1:pos:R:3:minim_forces:R:3:momenta:R:3:md_forces:R:3 config_type=supercell_interstitial_minim_last_unconverged_MD buildcell_config_i=0 RSS_min_vol_per_atom=8.0 buildcell_type=narrow gap_rss_group=ALL gap_rss_iter=2 buildcell_symmetry="145 P3_2 P 32 @ 0.01" minim_pressure_GPa=0.22523662841918016 minim_config_type=minim_last_unconverged minim_n_steps=20 E_per_atom_dist_to_nearby=0.0 primitive_cell="_JSON [[4.285269707886118, 0.0, 0.0], [-2.142634853943059, 3.711152429097299, 0.0], [0.0, 0.0, 5.544591681487686]]" orig_cell="_JSON [[4.285269707886118, 0.0, 0.0], [-2.142634853943059, 3.711152429097299, 0.0], [0.0, 0.0, 5.544591681487686]]" supercell_n="1 1 1" interstitial=6 minim_energy=-45.505175677891884 minim_stress="0.9485338796590826 0.9820082945314339 0.7475051584743719 -0.05566951814308854 -0.05881265521982026 0.03306603479745492" MD_pressure_GPa=0.22523662841918016 MD_temperature_K=1250.0 MD_time_fs=200.0 md_energy=4.630662025031943 vasp_rundir=run_iter_2/run_VASP_r_xtw7ee DFT_FAILED_VASP=T pbc="T T T"
Li      -4.32726920     -78.51132827     -31.52422073       0.75677319       2.12864446       1.37388530       0.18771386      -0.30323443       1.66887108       0.00000000       0.00000000       0.00000000
Li     -34.77851143     -36.99212003     -61.53297493       2.27215705       0.04915772       1.55390857      -0.01982799      -0.13523759       0.43538401       0.00000000       0.00000000       0.00000000
Li      26.16428136     -29.13449056     -91.47233501      -2.36280042      -1.72468452      -0.53971890       0.57382350       0.35261489       1.00598020       0.00000000       0.00000000       0.00000000