13
Lattice="2.7147980722590854 -4.355303028871199 0.0 2.7147980722590854 4.355303028871199 0.0 -0.7202848610567053 0.0 9.715669406817344" Properties=species:S:1:pos:R:3:momenta:R:3:forces:R:3:REF_forces:R:3 config_type=supercell_bulk_MD buildcell_config_i=28 RSS_min_vol_per_atom=10.0 buildcell_type=narrow_odd gap_rss_group=ALL gap_rss_iter=2 buildcell_symmetry="5 C2 C 2y @ 0.01" minim_pressure_GPa=0.20913372385542517 minim_config_type=minim_last_unconverged virial="-0.15526167741133978 0.05457611554344177 0.47202855448322595 0.05457611554342784 -0.10497086580462489 0.737203175696517 0.4720285544832385 0.7372031756965342 1.6475960162041297" minim_n_steps=20 energy=-62.17865186107484 stress="0.0006570761702013807 -0.00023096919718789842 -0.0019976514486818703 -0.00023096919718789842 0.0004442426208167991 -0.0031198853923472777 -0.0019976514486818703 -0.0031198853923472777 -0.006972719208090897" free_energy=-62.17865186107484 E_per_atom_dist_to_nearby=0.0 primitive_cell="_JSON [[2.7403172197383445, -4.39624295049791, 0.0], [2.7403172197383445, 4.39624295049791, 0.0], [-0.7270555508491465, 0.0, 9.806996862433952]]" orig_cell="_JSON [[2.7403172197383445, -4.39624295049791, 0.0], [2.7403172197383445, 4.39624295049791, 0.0], [-0.7270555508491465, 0.0, 9.806996862433952]]" supercell_n="1 1 1" MD_pressure_GPa=0.20913372385542517 MD_time_fs=100.0 vasp_rundir=run_iter_2/run_VASP_vqcf7chf REF_energy=40.80422875 REF_stress="-0.019573284881876117 0.028598500873843236 -0.34565989063894353 -0.0137146508972452 -0.019445423154685445 0.002962973749816435" pbc="T T T"
Li       1.51116295      -0.21913837       7.32335236       0.28393028       0.97622945       1.93758615       5.16025222       0.47145426      -5.97319773     -12.63806075      -2.25469196      23.96021740
Li       3.53296799      -0.78822764       0.57985314       0.53660049       0.53651898      -0.20692967      -0.15721643      -0.08669799       1.33529874       0.14875624      -0.21650289      -0.17577814
Li       2.97472390       2.03119991       6.44935755       2.11278312       0.85233847      -2.01749824       3.31116361      -0.25910311      -7.79563413      -9.74108070       3.90746692      40.47481740
Li       1.83840930       2.55607233       3.30382764      -0.37073296       0.34547815       2.49239962      -0.23117894       0.29753293       2.98398762      -0.08705462       0.32467429       0.33063270
Li       3.03747153      -2.32482822       6.05994059       0.75331493       0.27972073       5.12455072       1.17952103      -0.08546382       0.91244110     -73.82502964      -9.84486008    -209.77160771
Li       1.83952326      -2.64633163       3.01574975       0.16642238      -0.33847545       1.62611107       0.15001534      -0.73692521       1.10147001      -0.15716796      -0.20544650       0.16694184
Li       1.08414610       0.06327505       1.66306225       0.31642910      -0.26513520       0.96183885       0.52804706      -0.38980301      -0.09247451       0.00530574       0.05561008      -0.21749888
Li       4.51330975      -0.17697148       7.23039916      -0.15865030      -0.12489274      -2.55583143      -1.63958841       0.80585382      -0.37498886      -0.53968692       0.28955537      -0.30726113
Li       3.09543342       1.98239629       5.95537985      -1.93360223       0.33780943      -1.28478379      -1.19393074       1.15573049       4.51075003      10.12340335      -3.67222896     -41.11718411
Li       0.40494149       2.04116146       6.29320460       0.59088877      -0.85200845      -4.88695161      -1.23447010      -0.26138739      -2.39760866      73.99281143       9.72544172     210.01675306
Li       1.80684336      -0.17097006       6.79411726      -0.58008011      -0.82483982       0.21415598      -4.01549868      -0.78744446       6.21670960      12.82202861       1.95439254     -23.18275347
Li       1.92032161      -0.05758409       4.80648249      -2.41001653      -0.19364777       0.91225684      -2.30450258      -0.06400875      -0.70475058      -0.09077647      -0.14460167      -1.12833640
Li       3.41141112       1.83123547      -1.18071020       0.69271305      -0.72909578      -2.31690450       0.44738660      -0.05973775       0.27799737      -0.01344832       0.08119114       0.95105744
13
Lattice="2.694112206830417 -4.322117057038923 0.0 2.694112206830417 4.322117057038923 0.0 -0.7147965281090811 0.0 9.641639212103227" Properties=species:S:1:pos:R:3:momenta:R:3:forces:R:3:REF_forces:R:3 config_type=supercell_bulk_MD buildcell_config_i=28 RSS_min_vol_per_atom=10.0 buildcell_type=narrow_odd gap_rss_group=ALL gap_rss_iter=2 buildcell_symmetry="5 C2 C 2y @ 0.01" minim_pressure_GPa=0.20913372385542517 minim_config_type=minim_last_unconverged virial="-0.15526167741133978 0.05457611554344177 0.47202855448322595 0.05457611554342784 -0.10497086580462489 0.737203175696517 0.4720285544832385 0.7372031756965342 1.6475960162041297" minim_n_steps=20 energy=-74.45982370873791 stress="0.0006570761702013807 -0.00023096919718789842 -0.0019976514486818703 -0.00023096919718789842 0.0004442426208167991 -0.0031198853923472777 -0.0019976514486818703 -0.0031198853923472777 -0.006972719208090897" free_energy=-74.45982370873791 E_per_atom_dist_to_nearby=0.0 primitive_cell="_JSON [[2.7403172197383445, -4.39624295049791, 0.0], [2.7403172197383445, 4.39624295049791, 0.0], [-0.7270555508491465, 0.0, 9.806996862433952]]" orig_cell="_JSON [[2.7403172197383445, -4.39624295049791, 0.0], [2.7403172197383445, 4.39624295049791, 0.0], [-0.7270555508491465, 0.0, 9.806996862433952]]" supercell_n="1 1 1" MD_pressure_GPa=0.20913372385542517 MD_time_fs=125.0 vasp_rundir=run_iter_2/run_VASP_7xkzui1n REF_energy=63.51624762 REF_stress="-0.042650193419923856 0.009684353534164365 -0.4827922049965791 -0.07575221887172354 -0.12450808578794113 -0.013954549067652955" pbc="T T T"
Li       1.67500491      -0.18258644       6.75160489      -1.87593499       0.52006993      -0.79847924       0.12619909       0.98406055      -0.05718984     -41.32135847     -46.98228466    -233.63260517
Li       3.60676161      -0.79368993       0.63423299       0.40781711      -0.57882582       0.94835243       1.06218779      -0.17524055       1.66679302       0.23781482      -0.16032973      -0.33305776
Li       2.95568862       1.95373755       5.61458680      -1.16366850      -0.01970777       1.41522629       1.11112211       0.58259138       1.82460982     -70.87740180     -11.98986867     -99.20945055
Li       1.73844974       2.70034076       4.50868192       0.28965773      -0.05132888       3.14114101       1.06745691      -0.65120378       0.65601073      -1.07705849       1.05344413      -2.63455388
Li       3.01590705      -2.34057243       5.95873130      -0.58833248       0.48225012       0.05280648       0.43555141       1.37091516       7.38173833      -0.60286804      -7.25058883     -50.18812025
Li       1.71161793      -2.90212483       4.23543995      -0.89586759      -0.81505240       4.72250187      -0.32563579       0.46276819       0.05766622       0.35212040      -0.40735383      -1.91114060
Li       1.21470062      -0.05212961       1.73664342       0.07437203      -0.03668292      -0.85955801      -0.54463039       0.10942334      -1.28862515      -0.25604893       0.14498165       0.19204012
Li       4.39795169      -0.10997705       6.30420772       0.58272963      -0.19159110      -2.69468856      -0.32436525      -0.79780314      -0.69377494      -0.11635072      -0.06856763       0.79513486
Li       3.14075368       1.98318052       5.87622256      -1.19124934      -1.16589065      -0.89581595      -3.79525145      -0.50666363       0.58379180      71.42974520      11.48880575     100.63219585
Li       0.32617216       2.04821744       6.42443673       0.41353870      -0.26282290       2.05911365       0.25074086      -1.27911231      -5.28247777       0.49342531       7.19398617      51.68760407
Li       1.71581043      -0.13631462       6.98144502       1.40819386       0.42871928      -4.10596422      -0.95388530      -0.24126596      -3.48190892      41.48521900      47.00215149     233.49938400
Li       1.48611358      -0.11898386       4.68573762       1.35176826       0.02420725       0.18076727       2.04824219      -0.24055140       1.54609100       0.33019661      -0.08000249      -0.57657917
Li       3.74974751       2.04078866      -1.86213562       1.18697558       1.66665586      -3.16540301      -0.15773217       0.38208216      -2.91272429      -0.07743489       0.05562666       1.67914847
13
Lattice="2.589580239898301 -4.15441825216447 0.0 2.589580239898301 4.15441825216447 0.0 -0.6870623131606257 0.0 9.267542131537787" Properties=species:S:1:pos:R:3:momenta:R:3:forces:R:3 config_type=supercell_bulk_MD buildcell_config_i=28 RSS_min_vol_per_atom=10.0 buildcell_type=narrow_odd gap_rss_group=ALL gap_rss_iter=2 buildcell_symmetry="5 C2 C 2y @ 0.01" minim_pressure_GPa=0.20913372385542517 minim_config_type=minim_last_unconverged virial="-0.15526167741133978 0.05457611554344177 0.47202855448322595 0.05457611554342784 -0.10497086580462489 0.737203175696517 0.4720285544832385 0.7372031756965342 1.6475960162041297" minim_n_steps=20 energy=-144.15741453803966 stress="0.0006570761702013807 -0.00023096919718789842 -0.0019976514486818703 -0.00023096919718789842 0.0004442426208167991 -0.0031198853923472777 -0.0019976514486818703 -0.0031198853923472777 -0.006972719208090897" free_energy=-144.15741453803966 E_per_atom_dist_to_nearby=0.0 primitive_cell="_JSON [[2.7403172197383445, -4.39624295049791, 0.0], [2.7403172197383445, 4.39624295049791, 0.0], [-0.7270555508491465, 0.0, 9.806996862433952]]" orig_cell="_JSON [[2.7403172197383445, -4.39624295049791, 0.0], [2.7403172197383445, 4.39624295049791, 0.0], [-0.7270555508491465, 0.0, 9.806996862433952]]" supercell_n="1 1 1" MD_pressure_GPa=0.20913372385542517 MD_time_fs=210.0 vasp_rundir=run_iter_2/run_VASP_d1_yaslo pbc="T T T"
Li       1.34794394       0.20641601       5.72070328      -0.43304436      -0.14964720       1.94047183       2.73672301       0.45059937      -1.85361706
Li       4.34852931      -1.73085732       1.14045730       0.06907760       0.50899997       0.37116363      -0.58608789       0.09943260      -0.06054129
Li       2.65590346       2.38339793       6.13695891      -0.15682565      -0.58472039      -1.63601526      -1.18992227      -2.74953522      -3.99015673
Li       2.67187115       2.43080876       5.50613179      -2.64226311       1.16045112       1.15905658      -1.75940702      -3.62335802       2.16854356
Li       2.55882455      -2.09915966       5.68063376      -0.46116088       0.83718484      -0.00287149       3.81209170       1.40974729      -0.05155755
Li       1.34426006      -3.94019821       5.90141743      -2.10274393      -1.12820398      -0.53251733       1.15442819      -0.17652141       0.20457090
Li       1.70672886      -0.50361495       1.15486368       0.36268261      -0.27421456      -1.45288653       0.30720768       0.21295817      -0.75416889
Li       3.91014918       0.11507088       6.00356056       4.62186841      -0.44473726       2.05836722       0.57232094       2.61051916       0.26410342
Li       2.63215121       2.31175935       5.80078450      -0.24919937      -0.49661929       0.35778544      -0.52966796      -0.11956260      -0.46928035
Li      -0.00678552       2.18823590       5.57421302      -0.02754855       0.69830453       1.20403195       3.22879193      -0.91137639       0.41660893
Li       1.54981983       0.14321901       5.53942401      -0.15182559       0.21412252       1.82657911      -4.05000160       0.75808478       0.48804480
Li       1.55733016       0.14540629       5.34142328      -0.50421213       0.20183183      -3.38320174      -4.89350456       0.79130906       1.38854506
Li       3.26544306       2.28071397      -3.89531872       1.67519496      -0.54275214      -1.90996341       1.19702785       1.24770322       2.24890520
10
Lattice="6.092061817262463 -3.550026942067842 0.0 6.092061817262463 3.550026942067842 0.0 -3.6662266753190846 0.0 5.6685825835625305" Properties=species:S:1:pos:R:3:momenta:R:3:forces:R:3:REF_forces:R:3 config_type=supercell_bulk_MD buildcell_config_i=37 RSS_min_vol_per_atom=10.0 buildcell_type=wide_even gap_rss_group=ALL gap_rss_iter=2 buildcell_symmetry="5 C2 C 2y @ 0.01" minim_pressure_GPa=0.17025600667561258 minim_config_type=minim_last_unconverged virial="4.870575240643909 1.6660977819604739e-07 1.2410899862869789 1.6660977506660624e-07 -1.0849153039349893 -4.180584654012165e-07 1.2410899862869642 -4.180584715629543e-07 5.222310592640408" minim_n_steps=20 energy=-23.79538287241349 stress="-0.02017119704927692 -6.900044526896415e-10 -0.005139900203239468 -6.900044526896415e-10 0.004493112065045457 1.7313642416703622e-09 -0.005139900203239468 1.7313642416703622e-09 -0.021627888044441632" free_energy=-23.79538287241349 E_per_atom_dist_to_nearby=0.0 primitive_cell="_JSON [[6.061038207019765, -3.5319485548968985, 0.0], [6.061038207019765, 3.5319485548968985, 0.0], [-3.6475565450991, 0.0, 5.639715526402562]]" orig_cell="_JSON [[6.061038207019765, -3.5319485548968985, 0.0], [6.061038207019765, 3.5319485548968985, 0.0], [-3.6475565450991, 0.0, 5.639715526402562]]" supercell_n="1 1 1" MD_pressure_GPa=0.17025600667561258 MD_time_fs=75.0 vasp_rundir=run_iter_2/run_VASP_rni3ic_u REF_energy=-11.7065723 REF_stress="-0.04358613657408825 -0.022674365165720935 -0.04724011675579682 -0.0025921234501139465 0.003358430506440205 0.005981907341285803" pbc="T T T"
Li       5.11204691      -2.53388328       3.78253751       0.08072945      -0.25915420       0.43444891      -0.55967051      -0.39241823      -0.84275337      -1.56013167       2.27926133       0.97337955
Li       4.32194356      -2.51795826       1.43109706       2.13047127      -0.37733482      -0.29413243       1.04481503      -0.92377797       1.02935914      -0.51868478       1.03418219      -1.09806240
Li      -0.06588656      -0.65879946       4.45710040      -0.19044996       0.22414413      -1.02181707      -0.07746746      -0.17802330       0.60355551       0.51317090      -0.75660092       2.56259033
Li       8.71145257      -1.11347929       1.37131330      -1.14460261      -0.82441218       0.69300410       0.14781328       0.15770520      -0.09293829      -1.33238325       0.25035892      -0.42874244
Li       0.64864330       0.91255746       2.58212776       0.21504826       0.03887834       1.17481970       0.40925091      -0.31314914       1.40421460       1.74811761       0.81226187      -0.78516975
Li       6.88860006       1.91031727       2.93464255      -0.84786252      -0.19736567       0.55844839      -0.61745980      -0.62672852       1.37770105       2.13830226      -2.07124718      -0.26913291
Li       5.22273355       2.65103015       2.17151079      -0.32473475       0.13976270       0.16898756      -0.77433174       1.42873497       0.08249365      -0.26826206      -0.80666283      -1.62893222
Li       3.70282805       2.85581645       3.45621687       2.34325784      -1.37874737      -0.86755420       1.64543004      -0.36345181      -1.58642627      -1.88805112      -0.64377554       1.12239487
Li       7.40631389       2.84319622       0.43622229      -1.17116921       2.99186049      -0.93241661      -0.54168999       1.28925010      -1.34583670       0.16579855       0.08656493      -0.06409252
Li       0.64080946       1.60681872       5.72014440      -1.09068777      -0.35763143       0.08621165      -0.67668976      -0.07814130      -0.62936932       1.00212355      -0.18434279      -0.38423251
10
Lattice="6.2944649887802395 -3.667973334209178 0.0 6.2944649887802395 3.667973334209178 0.0 -3.7880336971199764 0.0 5.85691604558887" Properties=species:S:1:pos:R:3:momenta:R:3:forces:R:3 config_type=supercell_bulk_MD buildcell_config_i=37 RSS_min_vol_per_atom=10.0 buildcell_type=wide_even gap_rss_group=ALL gap_rss_iter=2 buildcell_symmetry="5 C2 C 2y @ 0.01" minim_pressure_GPa=0.17025600667561258 minim_config_type=minim_last_unconverged virial="4.870575240643909 1.6660977819604739e-07 1.2410899862869789 1.6660977506660624e-07 -1.0849153039349893 -4.180584654012165e-07 1.2410899862869642 -4.180584715629543e-07 5.222310592640408" minim_n_steps=20 energy=-67.45362515351871 stress="-0.02017119704927692 -6.900044526896415e-10 -0.005139900203239468 -6.900044526896415e-10 0.004493112065045457 1.7313642416703622e-09 -0.005139900203239468 1.7313642416703622e-09 -0.021627888044441632" free_energy=-67.45362515351871 E_per_atom_dist_to_nearby=0.0 primitive_cell="_JSON [[6.061038207019765, -3.5319485548968985, 0.0], [6.061038207019765, 3.5319485548968985, 0.0], [-3.6475565450991, 0.0, 5.639715526402562]]" orig_cell="_JSON [[6.061038207019765, -3.5319485548968985, 0.0], [6.061038207019765, 3.5319485548968985, 0.0], [-3.6475565450991, 0.0, 5.639715526402562]]" supercell_n="1 1 1" MD_pressure_GPa=0.17025600667561258 MD_time_fs=175.0 vasp_rundir=run_iter_2/run_VASP_2gtqccas pbc="T T T"
Li       4.86779011      -2.78730929       3.57691806      -0.19602502       1.49264168       0.24792893      -4.45967069       2.30425440      -2.12274306
Li       4.69002631      -2.71104871       1.03614085      -1.58049374       0.75909648       0.14371239      -1.25700457       0.02555716       3.42784938
Li      -0.70148613      -1.51801181       4.46913938       0.72185273       0.02671531       1.88801064       1.21291828       2.37248441      -4.15349080
Li      11.92651906      -0.88785331       1.89816175      -4.21966464       2.90385616      -0.31346790       0.52369232      -0.15003929       5.86718797
Li      -0.05066757       0.07806734       2.81222866      -1.27385098      -2.65013148       1.07080015      -2.01483453      -4.38216399      -2.06781648
Li       5.81283578       2.94850934       2.36533871      -2.22497277       0.14563297      -1.71925025       0.06000742      -1.40495420       0.67959611
Li       5.50001079       2.51774586       2.21460453       2.83037265      -1.22167305       0.98717639       1.76068321       0.99462389       0.16478727
Li       3.60929874       2.74456523       2.34803188      -0.43430241      -3.08056516      -2.83924061      -1.40459394      -2.55495286       2.51045120
Li       6.70466853       3.09281047       0.44313547       0.57436640       1.44493505      -1.33542683       3.50113063       1.02530462      -4.70832020
Li       1.64548578       2.67601074       8.12088094       5.80271777       0.17949203       1.86975710       2.07767187       1.76988585       0.40249862
9
Lattice="8.405534267633058 0.0 0.0 0.0 8.405534267633058 0.0 0.0 0.0 3.051776787286697" Properties=species:S:1:pos:R:3:momenta:R:3:forces:R:3:REF_forces:R:3 config_type=supercell_vacancy_MD buildcell_config_i=39 RSS_min_vol_per_atom=10.0 buildcell_type=wide_even gap_rss_group=ALL gap_rss_iter=2 buildcell_symmetry="81 P-4 P -4 @ 0.01" minim_pressure_GPa=0.9195568942847615 minim_config_type=minim_last_unconverged virial="1.604461158432998 8.698650307004119e-12 4.00828675806153e-12 8.699299328660558e-12 6.967909043463922 -1.0618839141329772e-11 4.016406812494488e-12 -1.0618228518666228e-11 6.967909043460125" minim_n_steps=20 energy=-24.738044230545217 stress="-0.007300044882536833 -3.958043808792931e-14 -1.827401669627944e-14 -3.958043808792931e-14 -0.03170288572420127 4.8311262851012174e-14 -1.827401669627944e-14 4.8311262851012174e-14 -0.03170288572418399" free_energy=-24.738044230545217 E_per_atom_dist_to_nearby=0.0 primitive_cell="_JSON [[8.459384109500082, 0.0, 0.0], [0.0, 8.459384109500082, 0.0], [0.0, 0.0, 3.0713279177890924]]" orig_cell="_JSON [[8.459384109500082, 0.0, 0.0], [0.0, 8.459384109500082, 0.0], [0.0, 0.0, 3.0713279177890924]]" supercell_n="1 1 1" vacancy_Z=3 vacancy_pos="6.394278159750062 7.3487343697500265 2.326968478894546" MD_pressure_GPa=0.9195568942847615 MD_time_fs=210.0 vasp_rundir=run_iter_2/run_VASP_u6woujy7 REF_energy=10.31991937 REF_stress="-0.12033821145369694 -0.034828710889650255 -0.012819049531346152 0.0027592174686662365 0.0017579049734190208 -0.08684041695760587" pbc="T T T"
Li       9.20969920       2.88576354       0.74385941       2.06769700      -1.18523898       0.12008370      -1.38552343      -0.93954050      -0.33846077      81.40935267      53.59806802      -2.39275092
Li       1.25086085       5.37484553       0.75938501       1.20653791      -0.63570000       0.32682395      -1.14776301       1.82813467       0.43973831       0.94980461       0.46804782      -0.10786646
Li       1.62608319       1.16652820       2.15903373      -3.12213649       2.02663995      -0.05281254      -0.28931007      -0.45604305       1.09190402      -0.12619557      -1.41417163       0.12041464
Li       6.82893772       4.83045280       0.80976497       1.28441001      -0.72697787       0.05896173       0.09837405      -0.88834061      -0.01034621      -2.01791826       0.03077873      -0.19413378
Li       0.50211502       2.68818094       0.75225504       1.44838266       2.11125359      -0.24469778       1.88757543       2.15912080      -0.45551549     -81.69190276     -52.67620529       2.12028343
Li       3.47987983       2.50147772       2.34136686      -2.38233086       0.86827182      -0.18154251      -0.21269562       0.92726347      -0.70332462       0.29287371       0.56934039       0.06047552
Li       3.28816858       6.37097671       2.27531720      -1.90117601      -0.01833223       0.10505177      -0.15484736       0.48900140       0.06935659       0.53855974       0.23260510       0.01755332
Li      -0.15836064       4.65600542       2.23158775      -0.16000302      -1.03722580      -0.32648571       0.10263793      -1.25266053      -0.10007811       0.67571438      -0.79983421       0.38975882
Li       5.44394630       0.04871876       0.87415826       1.55861879      -1.40269049       0.19461738       1.10155208      -1.86693564       0.00672627      -0.03028853      -0.00862891      -0.01373456
15
Lattice="3.4217292839441886 0.0 0.0 0.0 9.565785925540432 0.0 0.0 0.0 12.48050255893458" Properties=species:S:1:pos:R:3:momenta:R:3:forces:R:3:REF_forces:R:3 config_type=supercell_vacancy_MD buildcell_config_i=76 RSS_min_vol_per_atom=9.0 buildcell_type=wide gap_rss_group=ALL gap_rss_iter=2 buildcell_symmetry="19 P2_12_12_1 P 2ac 2ab @ 0.01" minim_pressure_GPa=0.11862205548596011 minim_config_type=minim_last_unconverged virial="-116.69714677197521 1.2789769243681803e-11 2.972733170736319e-12 1.2758682998992299e-11 -133.0501252201244 5.516476164757478e-12 2.921218822393712e-12 5.519362744621503e-12 -113.70551991483701" minim_n_steps=20 energy=-27.4904481401003 stress="0.36100675034630353 -3.946943704771848e-14 -9.03689373128758e-15 -3.946943704771848e-14 0.4115952674724755 -1.707434383388685e-14 -9.03689373128758e-15 -1.707434383388685e-14 0.35175204686966677" free_energy=-27.4904481401003 E_per_atom_dist_to_nearby=0.0 primitive_cell="_JSON [[3.164908502097398, 0.0, 0.0], [0.0, 8.847817782384315, 0.0], [0.0, 0.0, 11.543767896707955]]" orig_cell="_JSON [[3.164908502097398, 0.0, 0.0], [0.0, 8.847817782384315, 0.0], [0.0, 0.0, 11.543767896707955]]" supercell_n="1 1 1" vacancy_Z=3 vacancy_pos="0.8126793194756499 7.252536602384316 10.713473711707957" MD_pressure_GPa=0.11862205548596011 MD_time_fs=100.0 vasp_rundir=run_iter_2/run_VASP_bw2u55ki REF_energy=9.78991374 REF_stress="0.14089028926616579 0.1037719888378988 0.15510262539339634 -0.08806798691117189 -0.08269745127340708 -0.10931664487935587" pbc="T T T"
Li       3.04058194       7.53274108       5.49635071       1.03780371      -0.27381975      -0.44811796      -1.43712331      -0.01691687       0.63045838       0.76964023       1.49405727      -0.92251775
Li       1.40794144       4.08997301       1.73938566       1.45958130       0.45668734      -0.86513232       1.60648312       0.38034549       0.56732423      -0.52487294       0.93918311       0.83837144
Li       1.02594052       5.09546686       9.19501166      -1.04989815       0.61914706      -0.08784282       8.48335253       3.58678308       3.98752720    -103.13169040    -109.48925214     -93.14671436
Li       2.79987480       1.86737851      11.34601263       0.34690244       1.64566615       0.33735071       2.76268086      -0.39717989       3.39921686      -1.30636604      -2.25480472       0.12034641
Li       0.67017034       2.96619059      11.04094121      -1.84499885      -0.04444817       0.66239103      -2.47117062       1.90379123       1.45456245       1.34042168       2.36063363      -0.61098335
Li       2.93661249       7.76738677       8.08366567       1.93855667       0.31894622      -1.29279974      -1.24981118      -4.35208073      -0.97341112       0.05726081       0.13780342       0.52375480
Li       1.99516286       2.19345087       1.33927154       0.66994359      -0.26437637       0.24528093       1.98083810      -1.57069218       0.37619564       0.28851244      -1.51680270       0.17350685
Li       2.21464706       5.74558823       5.90728269      -0.34483930      -1.08604051      -0.93840336      -3.43851928       1.24539163       0.13468366      -0.89339524      -1.23073807      -0.05333640
Li       2.51899366       3.86025130       7.16657904       0.55446623       0.11231256       0.75774392       3.24358723      -0.00455524      -1.38222365       0.17016277      -0.68181744       0.44489098
Li       2.95977218       5.37343880       0.25061201      -0.28374126      -0.16769169      -1.24845044      -0.70005914      -0.61993608      -2.57058898       0.12677729       0.30107608      -0.85232234
Li       3.22548595       1.25892340       6.11219237       1.27609830      -0.75302306       0.48785640      -3.28527700      -2.35832025      -1.74517133       0.10343740      -0.05855896       0.11734481
Cu       2.86842536       8.83784950       1.91644803       0.75034198       0.21109648      -0.20088677       0.16215181       3.07803811      -4.10226588       0.03845654       0.14754049      -0.04110140
Cu       0.51305878       3.91916079       4.37050753       3.75644451      -1.16778353      -1.95761133       1.89998339       0.41176055      -1.91596450      -0.16051929       0.09970095       0.30082123
Cu       1.39634935       5.49084570       9.53087057      -3.62841651      -0.87726201      -2.32448361      -6.42750525      -1.76204246      -0.97395764     103.17171121     109.47850297      93.07285679
Cu       1.50389934       1.08061159       8.66514365      -4.63824467       1.27058928       6.87310535      -1.12961127       0.47561362       3.11361469      -0.04953646       0.27347609       0.03508229
13
Lattice="3.709904752185283 -4.760675593052488 0.0 3.709904752185283 4.760675593052488 0.0 -2.4665011359994162 0.0 4.247225898580399" Properties=species:S:1:pos:R:3:momenta:R:3:forces:R:3 config_type=supercell_interstitial_MD buildcell_config_i=38 RSS_min_vol_per_atom=10.0 buildcell_type=wide_even gap_rss_group=ALL gap_rss_iter=2 buildcell_symmetry="8 Cm C -2y @ 0.01" minim_pressure_GPa=0.6659977427267192 minim_config_type=minim_last_unconverged virial="-5.5586432277177265 -0.4819322745509449 -0.7203899093291923 -0.4819322745510003 -0.5012675352612789 -3.1326958125407183 -0.7203899093292221 -3.132695812540738 -3.0882690698830286" minim_n_steps=20 energy=-153.66912623876087 stress="0.028501068900229777 0.0024710319406237705 0.003693685958912035 0.0024710319406237705 0.0025701704489129265 0.016062405076021344 0.003693685958912035 0.016062405076021344 0.015834613940374016" free_energy=-153.66912623876087 E_per_atom_dist_to_nearby=0.0 primitive_cell="_JSON [[4.048956171992011, -5.195757873295103, 0.0], [4.048956171992011, 5.195757873295103, 0.0], [-2.691916818604989, 0.0, 4.63538356497476]]" orig_cell="_JSON [[4.048956171992011, -5.195757873295103, 0.0], [4.048956171992011, 5.195757873295103, 0.0], [-2.691916818604989, 0.0, 4.63538356497476]]" supercell_n="1 1 1" interstitial=12 MD_pressure_GPa=0.6659977427267192 MD_time_fs=150.0 vasp_rundir=run_iter_2/run_VASP_8im3ci0v pbc="T T T"
Li       2.22219048       2.20481844       1.72013204       1.14329180       1.49332406       0.43326716       3.32673766       5.90247942      -5.35964543
Li       3.57012472      -2.31365422       0.66527570      -0.10339547       0.97840932      -0.79999023      -0.72911027      -0.60083295       1.63973548
Li       4.75581249       2.29584585       2.46586400       0.01825197       0.15343016       1.07781888       1.17204675       0.24865478      -1.09126280
Li       5.97902476      -2.02984639       1.50066969       0.46854560      -3.16312413      -0.57371898       0.55622592      -5.85918359       4.46764748
Li       2.40142365       2.31358335       4.13694540      -0.93971738      -0.14544468       0.97929927       0.04541995       0.48266500      -1.04452643
Li       3.63698882      -2.45054426       3.19332330      -0.22850563       0.85534933      -0.09141423      -0.17559208       0.63121105       0.53653561
Li       4.82114379       2.41926255       2.51274549      -0.53540308       0.31624501      -0.44679051      -0.55996757       0.14688516      -1.92247456
Li       3.62103016      -2.33043519       3.15895331       0.12336942       0.08591254       0.26221972       0.27575466      -0.24816696       1.63638087
Li       2.33130008       2.34461419       4.17233202      -0.25698077       0.48281772       0.97404034       0.79495070       0.54528224      -1.71599120
Li       1.14070219      -2.36663512       2.34939881       0.40776655       0.94685796      -1.19576029      -0.94176483       0.00787565       0.56748422
Li       3.59295960      -2.45734773       0.69970533      -0.86868827       0.02434074      -0.68166322      -1.42687838       1.00251585       0.53292986
Li       2.33784041       2.52249734       1.55870336       0.71735152      -2.94032148      -0.02032787      -1.84124520      -3.51948972       2.76977154