13
Lattice="2.7323990425427542 -4.383539957418795 0.0 2.7323990425427542 4.383539957418795 0.0 -0.7249547157191133 0.0 9.778659435528038" Properties=species:S:1:pos:R:3:momenta:R:3:forces:R:3:REF_forces:R:3 config_type=supercell_bulk_MD buildcell_config_i=28 RSS_min_vol_per_atom=10.0 buildcell_type=narrow_odd gap_rss_group=ALL gap_rss_iter=2 buildcell_symmetry="5 C2 C 2y @ 0.01" minim_pressure_GPa=0.20913372385542517 minim_config_type=minim_last_unconverged virial="-0.15526167741133978 0.05457611554344177 0.47202855448322595 0.05457611554342784 -0.10497086580462489 0.737203175696517 0.4720285544832385 0.7372031756965342 1.6475960162041297" minim_n_steps=20 energy=-47.49247341391967 stress="0.0006570761702013807 -0.00023096919718789842 -0.0019976514486818703 -0.00023096919718789842 0.0004442426208167991 -0.0031198853923472777 -0.0019976514486818703 -0.0031198853923472777 -0.006972719208090897" free_energy=-47.49247341391967 E_per_atom_dist_to_nearby=0.0 primitive_cell="_JSON [[2.7403172197383445, -4.39624295049791, 0.0], [2.7403172197383445, 4.39624295049791, 0.0], [-0.7270555508491465, 0.0, 9.806996862433952]]" orig_cell="_JSON [[2.7403172197383445, -4.39624295049791, 0.0], [2.7403172197383445, 4.39624295049791, 0.0], [-0.7270555508491465, 0.0, 9.806996862433952]]" supercell_n="1 1 1" MD_pressure_GPa=0.20913372385542517 MD_time_fs=75.0 vasp_rundir=run_iter_2/run_VASP_sedy22uy REF_energy=44.00482688 REF_stress="-0.025452757705101078 -0.12875023477561406 -0.1795487286703516 0.13784441161032826 0.09027247267394405 -0.057332405371221855" pbc="T T T"
Li       1.71480344      -0.08538985       6.96739577       2.90597896       1.32161360      -5.65792790       0.04555942      -1.69933668      -0.00540129     106.97576810     253.95632083    -217.68584241
Li       3.49045019      -0.89951934       0.75882856      -0.34818788      -0.14920271      -0.59599435      -0.24050106       0.40523554      -0.54284655      -0.12189263      -0.09503996      -0.13963358
Li       3.17676891       2.09727760       6.12488681       2.20952569      -0.86917481      -3.60277453      -3.28516086      -1.97227476       4.00636023      15.79799289       2.28025644     -29.79397871
Li       1.95229230       2.48623172       2.87822522      -0.04573469       0.51833676       0.27789332      -0.50174844      -0.23119347       0.73140663       0.07721591       0.28944208       0.24250443
Li       3.15158634      -2.36730197       6.80303351       0.42782788       0.10773771      -3.48459256      -1.68375780       0.09102120      -7.23304329      -0.37087963       0.60546252       4.51195512
Li       1.80393020      -2.63782348       2.72949086       0.10288319      -0.14400466       0.33804472       0.24914176       0.14138076       0.32250282       0.02761769      -0.20605635      -0.13094955
Li       1.04392502       0.04545778       1.42071833       0.17703040       0.21832923       0.26079809       0.00247495       0.06358047       0.65135841      -0.14553593       0.21030830      -0.18478091
Li       4.13337122      -0.08716416       8.16198687       1.49183691      -0.07322351      -1.52244063       2.00856320      -0.03651999      -1.83278831       0.44519191       0.21307067      -0.40157101
Li       2.90752643       2.05964692       6.61899158      -1.91716529      -1.06477880       4.33369394       4.21471733       0.56610845      -4.74567526     -15.56441173      -2.02185336      29.82291959
Li       0.41574515       1.84183484       5.41806283      -1.32291827       0.43743888       4.50833769      -0.74399140       1.89392764       8.24482408      -0.12593247      -0.77207144      -4.04400583
Li       1.65412498      -0.22975575       7.09073606      -2.70045824      -0.74527649       4.78661733       0.51910047       1.32164949      -0.43557679    -106.91242798    -254.23672292     217.31760314
Li       2.43713570      -0.00751171       4.01266261      -1.23180071       0.21802627       2.19981396      -0.91768122      -0.24650817       2.73346016      -0.08611184      -0.17294140       0.56604254
Li       3.28979939       1.93202615      -0.31306237       0.25118203       0.22417852      -1.84146909       0.33328365      -0.29707048      -1.89458084       0.00340570      -0.05017542      -0.08026283
13
Lattice="2.658753832619612 -4.265392236187648 0.0 2.658753832619612 4.265392236187648 0.0 -0.7054153141190371 0.0 9.515099312835929" Properties=species:S:1:pos:R:3:momenta:R:3:forces:R:3:REF_forces:R:3 config_type=supercell_bulk_MD buildcell_config_i=28 RSS_min_vol_per_atom=10.0 buildcell_type=narrow_odd gap_rss_group=ALL gap_rss_iter=2 buildcell_symmetry="5 C2 C 2y @ 0.01" minim_pressure_GPa=0.20913372385542517 minim_config_type=minim_last_unconverged virial="-0.15526167741133978 0.05457611554344177 0.47202855448322595 0.05457611554342784 -0.10497086580462489 0.737203175696517 0.4720285544832385 0.7372031756965342 1.6475960162041297" minim_n_steps=20 energy=-125.84364822503663 stress="0.0006570761702013807 -0.00023096919718789842 -0.0019976514486818703 -0.00023096919718789842 0.0004442426208167991 -0.0031198853923472777 -0.0019976514486818703 -0.0031198853923472777 -0.006972719208090897" free_energy=-125.84364822503663 E_per_atom_dist_to_nearby=0.0 primitive_cell="_JSON [[2.7403172197383445, -4.39624295049791, 0.0], [2.7403172197383445, 4.39624295049791, 0.0], [-0.7270555508491465, 0.0, 9.806996862433952]]" orig_cell="_JSON [[2.7403172197383445, -4.39624295049791, 0.0], [2.7403172197383445, 4.39624295049791, 0.0], [-0.7270555508491465, 0.0, 9.806996862433952]]" supercell_n="1 1 1" MD_pressure_GPa=0.20913372385542517 MD_time_fs=150.0 vasp_rundir=run_iter_2/run_VASP_4qhjnvan REF_energy=174.40163002 REF_stress="-0.04303772224910499 -0.294533515664692 -0.6612962242146332 -0.26235529890588205 -0.06007423122423333 0.08433688958245471" pbc="T T T"
Li       1.71584066      -0.06533835       5.50049028       0.66565222       0.28506844      -5.53801476      -2.15132330       0.82666874       4.94180773      94.96184768     -21.90828394     140.33272143
Li       3.91352915      -1.10281658       1.15933130       0.86117646      -1.31830228       1.01555860      -0.25448149      -0.39276431      -0.72656726      -0.12666245      -0.17596109       0.04672602
Li       2.77208757       2.33612535       6.25181219      -1.24810140       1.32958904       1.52098387      -0.09780043      -1.75551988      -2.82702410    -199.96528556     466.15448708     515.09476425
Li       2.27713293       2.82412744       5.91221146       3.07952441      -1.11551259       5.81440237       4.58909182      -9.10573153       0.29975449      -8.25147698      10.87431268      -0.41150248
Li       2.87024862      -2.24144712       6.48790448      -1.16537530      -0.44813910      -1.09669300      -2.94427394       1.57180387      -4.72153682      19.35398567      10.70758930     109.13387304
Li       1.71246209      -3.78126382       5.40287137       1.63310783     -10.02936437       3.94848981      -3.88934677      -8.29270773       0.72165734      25.67644399      55.49515940      12.76033311
Li       1.18006967      -0.16204586       1.17826197       0.11294988      -0.72186288      -1.48403314       0.66320015      -0.50915383      -0.40114173       0.11639210       0.18401188       0.04389884
Li       4.19412024       0.09953223       5.31351216      -0.09851255       4.03857241      -2.33018926       0.98334413       2.39836148       3.31486492     -26.74118849     -55.09215810     -12.93893000
Li       2.81176220       2.24533278       6.15311496      -0.66410848       2.43312941       0.81576519      -0.24171589      -0.29706116      -3.44475516     206.89162407    -460.30252919    -488.93527933
Li       0.15343090       1.99080478       6.15439114      -0.96345531       0.40847194       0.33489579      -0.91302971       1.99176050       1.87273618     -18.52458454     -10.13866625    -109.95515490
Li       1.57785651      -0.03335857       5.27386722       0.69087959       1.55487433      -2.52368950       2.39262402       0.76055600       8.43121555     -95.57455807      21.59250411    -162.45586744
Li       1.66659241      -0.06145067       6.18158876      -0.67041769       1.72778029       5.00579830       0.38270846       1.62851495     -11.87154567      -0.60376285       0.22738584      22.20110628
Li       3.48617500       1.98800761      -3.87876140      -2.23331967       1.85569537      -5.48327426       1.48100296      11.17527290       4.41053455       2.78722543     -17.61785171     -24.91668883
13
Lattice="2.5963968570053626 -4.16535403167471 0.0 2.5963968570053626 4.16535403167471 0.0 -0.6888708845442616 0.0 9.291937315460236" Properties=species:S:1:pos:R:3:momenta:R:3:forces:R:3 config_type=supercell_bulk_MD buildcell_config_i=28 RSS_min_vol_per_atom=10.0 buildcell_type=narrow_odd gap_rss_group=ALL gap_rss_iter=2 buildcell_symmetry="5 C2 C 2y @ 0.01" minim_pressure_GPa=0.20913372385542517 minim_config_type=minim_last_unconverged virial="-0.15526167741133978 0.05457611554344177 0.47202855448322595 0.05457611554342784 -0.10497086580462489 0.737203175696517 0.4720285544832385 0.7372031756965342 1.6475960162041297" minim_n_steps=20 energy=-142.5745042045739 stress="0.0006570761702013807 -0.00023096919718789842 -0.0019976514486818703 -0.00023096919718789842 0.0004442426208167991 -0.0031198853923472777 -0.0019976514486818703 -0.0031198853923472777 -0.006972719208090897" free_energy=-142.5745042045739 E_per_atom_dist_to_nearby=0.12176233334351849 primitive_cell="_JSON [[2.7403172197383445, -4.39624295049791, 0.0], [2.7403172197383445, 4.39624295049791, 0.0], [-0.7270555508491465, 0.0, 9.806996862433952]]" orig_cell="_JSON [[2.7403172197383445, -4.39624295049791, 0.0], [2.7403172197383445, 4.39624295049791, 0.0], [-0.7270555508491465, 0.0, 9.806996862433952]]" supercell_n="1 1 1" MD_pressure_GPa=0.20913372385542517 MD_time_fs=200.0 vasp_rundir=run_iter_2/run_VASP_u_ksxgf3 pbc="T T T"
Li       1.43815642       0.20762681       5.46228787      -0.43257269       0.59164238       1.92967620      -0.31078778      -2.17939760       1.77380830
Li       4.31459638      -1.78450073       1.09024153       0.58697749       0.17806055       0.48994941      -0.32915073       0.61799533       0.08239834
Li       2.63030343       2.34031707       6.12364088       0.20528836       0.99322807       1.74474234       1.43045950      -0.80462473      -1.65134721
Li       2.81111211       2.20829006       5.50801897       0.94054430       1.32322806      -0.98877621      -3.70237388       3.07932307       2.14957972
Li       2.72304333      -2.09372172       5.68185884      -0.70418084      -1.29971750       0.26908771      -3.69980544       3.05933340      -0.38300841
Li       1.48223168      -3.87559964       5.97919737       1.37856877       0.20226455      -0.07212196      -5.72827026      -2.02443957      -1.62811779
Li       1.67332703      -0.46189696       1.28117466       0.40260456      -0.41036746      -0.18197023      -0.70240791       0.27413284      -2.34103005
Li       3.74169277       0.18965503       5.78440955      -3.53456415      -0.02581944       1.27188850       9.67686769      -1.28634099       1.89385764
Li       2.64354719       2.38449829       5.78412390      -0.18577514      -0.21484940       0.03298641       1.41393410      -2.31192769       0.02924224
Li       0.10985102       2.10128969       5.48382835      -0.75236328       0.14357620       0.21154949      -2.70151588       2.65188690       1.70713388
Li       1.39912697       0.14792741       5.31591481       1.56445376      -0.21427808       1.77891709       1.56650866       0.47040221       2.22997306
Li       1.44793440       0.14068465       5.81031873       1.56159243      -0.07927906      -3.34226956      -0.00813623       0.97770764      -3.41910018
Li       3.20501112       2.43697618      -3.55339153      -1.03057356      -1.18768887      -3.14365917       3.09467818      -2.52405080      -0.44338955
10
Lattice="6.073732313917022 -3.5393457913075754 0.0 6.073732313917022 3.5393457913075754 0.0 -3.6551959083757835 0.0 5.651527224220166" Properties=species:S:1:pos:R:3:momenta:R:3:forces:R:3:REF_forces:R:3 config_type=supercell_bulk_MD buildcell_config_i=37 RSS_min_vol_per_atom=10.0 buildcell_type=wide_even gap_rss_group=ALL gap_rss_iter=2 buildcell_symmetry="5 C2 C 2y @ 0.01" minim_pressure_GPa=0.17025600667561258 minim_config_type=minim_last_unconverged virial="4.870575240643909 1.6660977819604739e-07 1.2410899862869789 1.6660977506660624e-07 -1.0849153039349893 -4.180584654012165e-07 1.2410899862869642 -4.180584715629543e-07 5.222310592640408" minim_n_steps=20 energy=-21.221778830780032 stress="-0.02017119704927692 -6.900044526896415e-10 -0.005139900203239468 -6.900044526896415e-10 0.004493112065045457 1.7313642416703622e-09 -0.005139900203239468 1.7313642416703622e-09 -0.021627888044441632" free_energy=-21.221778830780032 E_per_atom_dist_to_nearby=0.42568180672173517 primitive_cell="_JSON [[6.061038207019765, -3.5319485548968985, 0.0], [6.061038207019765, 3.5319485548968985, 0.0], [-3.6475565450991, 0.0, 5.639715526402562]]" orig_cell="_JSON [[6.061038207019765, -3.5319485548968985, 0.0], [6.061038207019765, 3.5319485548968985, 0.0], [-3.6475565450991, 0.0, 5.639715526402562]]" supercell_n="1 1 1" MD_pressure_GPa=0.17025600667561258 MD_time_fs=50.0 vasp_rundir=run_iter_2/run_VASP_zy2rs9fv REF_energy=-14.35366175 REF_stress="-0.030862137443567424 -0.010984343805499125 -0.026925677450254804 -0.0005995785967219626 0.0010090563668272447 0.0013695117014654668" pbc="T T T"
Li       4.88878648      -2.30687477       3.82088114       0.82411276      -0.95382271      -1.42739793      -0.09077657       0.47183666       0.57495105      -0.88971775       1.37930028       0.76209542
Li       3.89800184      -2.27329290       1.50318387       0.32118859      -1.34874959       0.30579191       0.84875573      -0.19393704      -0.08466815       0.12025205       1.00135608      -0.49250196
Li      -0.19406367      -0.72594938       4.57221986       0.54880064       0.51288307       0.58600950       0.27355447      -0.21748393      -0.40969192       0.37581285      -0.28453949       0.94384240
Li       8.87589376      -0.92232879       1.12488818       0.29637739      -0.33345486       0.23061432      -0.22188519       0.08671536       0.58929206      -1.23328780      -0.14727854      -0.23872908
Li       0.80958227       0.93420599       2.65929796      -1.12190093      -0.78371768      -0.98838111       0.15120562      -0.09190087      -0.52066407       1.21101508       0.41353353      -0.67459402
Li       7.21215071       1.68905141       3.00545382      -0.76810543       1.03803899       0.24246204      -0.60201390       0.00975206      -0.76568914       0.71383417      -0.95716545       0.06518872
Li       5.16408581       2.90521565       2.12242002      -0.63904212      -0.02570123       0.31023435       0.90609414      -1.05458955       0.32504139       0.28003182      -0.89366119      -0.66345574
Li       3.29425131       2.92985501       3.64929448       0.80044442       0.54534767      -0.45483159      -0.13650422       0.54929809      -0.71719789      -0.97458593      -0.25616659       0.36136064
Li       7.63986878       2.00383366       0.37729032       0.03462318       1.38508161       0.14368530      -0.83009049       1.06280292       0.48400614      -0.45396212      -0.07965802       0.15161049
Li       0.87278632       1.70398113       5.42270650      -0.29649851      -0.03590527       1.05181321      -0.29833958      -0.62249369       0.52462052       0.85060764      -0.17572061      -0.21481687
10
Lattice="6.11367524118585 -3.5626217317367423 0.0 6.11367524118585 3.5626217317367423 0.0 -3.6792337185352864 0.0 5.688693587373444" Properties=species:S:1:pos:R:3:momenta:R:3:forces:R:3:REF_forces:R:3 config_type=supercell_bulk_MD buildcell_config_i=37 RSS_min_vol_per_atom=10.0 buildcell_type=wide_even gap_rss_group=ALL gap_rss_iter=2 buildcell_symmetry="5 C2 C 2y @ 0.01" minim_pressure_GPa=0.17025600667561258 minim_config_type=minim_last_unconverged virial="4.870575240643909 1.6660977819604739e-07 1.2410899862869789 1.6660977506660624e-07 -1.0849153039349893 -4.180584654012165e-07 1.2410899862869642 -4.180584715629543e-07 5.222310592640408" minim_n_steps=20 energy=-28.426572285824516 stress="-0.02017119704927692 -6.900044526896415e-10 -0.005139900203239468 -6.900044526896415e-10 0.004493112065045457 1.7313642416703622e-09 -0.005139900203239468 1.7313642416703622e-09 -0.021627888044441632" free_energy=-28.426572285824516 E_per_atom_dist_to_nearby=0.0 primitive_cell="_JSON [[6.061038207019765, -3.5319485548968985, 0.0], [6.061038207019765, 3.5319485548968985, 0.0], [-3.6475565450991, 0.0, 5.639715526402562]]" orig_cell="_JSON [[6.061038207019765, -3.5319485548968985, 0.0], [6.061038207019765, 3.5319485548968985, 0.0], [-3.6475565450991, 0.0, 5.639715526402562]]" supercell_n="1 1 1" MD_pressure_GPa=0.17025600667561258 MD_time_fs=100.0 vasp_rundir=run_iter_2/run_VASP_8ge92n2u REF_energy=-5.95338426 REF_stress="-0.06495383365289462 -0.04133008187757473 -0.07159107156533538 -0.000777786839367167 -0.0017575881356912634 0.0038409932838285995" pbc="T T T"
Li       4.81021888      -2.73406785       3.69842696      -1.20254966      -1.57108554      -0.17560292       0.69541238      -2.65025169      -0.32827598      -1.77256225       1.83803886       2.24531701
Li       4.76002589      -2.88742295       1.70723605      -0.09852990      -0.46476767      -0.77715286      -0.85549470       1.62776382      -2.54645949      -1.31082728       3.26628648      -3.04566202
Li       0.04357389      -0.89897573       4.46263359       0.75465079      -0.09896291      -0.68987816      -0.82087095       1.14248745      -1.75609154      -0.03918795       0.08535811       4.14345006
Li       8.83549349      -0.91215732       1.76249364       1.81655662       2.22493850       2.38870392       0.03329970       0.79845833       1.98826912      -2.30460796       0.43052309      -0.43542317
Li       0.47846966       0.84771806       3.00895864      -0.13433296      -0.34168126       0.75559818       0.82540866      -2.04853214      -0.54670682       2.87344374       1.70029297      -0.28250626
Li       6.54669588       2.09058627       2.97669671       0.40953420       1.64055975      -1.75197909       1.27391823       0.47342503      -3.02756646       3.92076975      -2.87067035      -1.45818893
Li       5.31710571       2.72319771       1.97478421       1.02186061      -0.54602230      -1.01975952       1.23226365       0.97999301       0.16932516       1.21377364      -1.28119452      -3.60441327
Li       4.37497608       2.37137846       2.95935034      -1.98808306      -1.73270816       0.11626068      -2.02826623       2.30441849       3.85356852      -2.95762608      -2.64331109       3.02253811
Li       7.08999603       3.68924819       0.06185813      -1.29594781       0.75319688      -0.06036816      -1.29670738      -2.08415487       2.24075647      -0.03578181      -0.16680976       0.11679321
Li       0.48402831       1.68724048       5.83102966       0.71684117       0.13653271       1.21417793       0.94103663      -0.54360742      -0.04681898       0.41260620      -0.35851378      -0.70190473
10
Lattice="6.156456980469677 -3.5875519329792445 0.0 6.156456980469677 3.5875519329792445 0.0 -3.7049799368902088 0.0 5.728501427391029" Properties=species:S:1:pos:R:3:momenta:R:3:forces:R:3:REF_forces:R:3 config_type=supercell_bulk_MD buildcell_config_i=37 RSS_min_vol_per_atom=10.0 buildcell_type=wide_even gap_rss_group=ALL gap_rss_iter=2 buildcell_symmetry="5 C2 C 2y @ 0.01" minim_pressure_GPa=0.17025600667561258 minim_config_type=minim_last_unconverged virial="4.870575240643909 1.6660977819604739e-07 1.2410899862869789 1.6660977506660624e-07 -1.0849153039349893 -4.180584654012165e-07 1.2410899862869642 -4.180584715629543e-07 5.222310592640408" minim_n_steps=20 energy=-43.77633622358361 stress="-0.02017119704927692 -6.900044526896415e-10 -0.005139900203239468 -6.900044526896415e-10 0.004493112065045457 1.7313642416703622e-09 -0.005139900203239468 1.7313642416703622e-09 -0.021627888044441632" free_energy=-43.77633622358361 E_per_atom_dist_to_nearby=0.0 primitive_cell="_JSON [[6.061038207019765, -3.5319485548968985, 0.0], [6.061038207019765, 3.5319485548968985, 0.0], [-3.6475565450991, 0.0, 5.639715526402562]]" orig_cell="_JSON [[6.061038207019765, -3.5319485548968985, 0.0], [6.061038207019765, 3.5319485548968985, 0.0], [-3.6475565450991, 0.0, 5.639715526402562]]" supercell_n="1 1 1" MD_pressure_GPa=0.17025600667561258 MD_time_fs=125.0 vasp_rundir=run_iter_2/run_VASP_8gszm3dn REF_energy=9.16398189 REF_stress="-0.08627046004515011 -0.05537362924176306 -0.12035663758700631 0.01534622252677924 -0.03277486645871796 0.0007581887566137678" pbc="T T T"
Li       4.96489988      -2.90028461       3.70090672       0.03609029       0.10017337      -0.46565127      -1.30651438       1.52918434      -2.32555218      -1.09964303       2.59137561       2.82818290
Li       4.74242830      -2.87256566       1.54105613      -0.69841991       1.95056186      -0.41083662       0.56190947       1.99282129       3.24736571      -0.27520653       2.87024210      -2.83527088
Li      -0.23623093      -1.26414485       4.11454429      -1.16833383      -1.12000516      -1.33196618       1.15239368      -1.29536129       1.87108593       1.18928339      -1.90059991       3.27491970
Li       9.96610669      -0.43232103       2.59371514       5.80401036      -0.48900417       1.78386304      -0.64902356      -1.84955463       2.61259910      -5.48198354       4.13865542      -1.86834930
Li       0.48789946       0.64588498       3.03456647       0.24536058      -3.02463055      -0.89164686      -1.47517936      -1.73040723      -4.64425748       3.22463045       1.49119646      -0.46013741
Li       5.56700310       2.55220328       1.87020412      -4.20462934       1.38610594      -0.43722800       5.83494496       1.37047145       2.68099612     -16.87163704       2.61312599     -30.02395832
Li       5.85348376       2.51193949       2.30584817       1.17034834      -0.97144021       3.45095615       3.54542023       0.34873535      -2.46044687      21.34949922      -3.56072783      27.43579182
Li       4.13547263       2.35031536       3.02091828      -0.84522096       0.84194614      -1.71667377      -4.18868168       1.42124531      -0.72441010      -1.43832756      -6.71394711       4.41896823
Li       6.87563360       3.52429657       0.13312104       0.61076719      -0.23759570      -1.33465652      -0.76941045      -1.15742783      -0.37789482       0.54979386      -0.04029790      -0.55189877
Li       0.68297362       1.90324534       6.32762678      -0.94997272       1.56388848       1.35384002      -2.70585892      -0.62970677       0.12051459      -1.14640923      -1.48902284      -2.21824798
10
Lattice="6.226960876702374 -3.6286366656452205 0.0 6.226960876702374 3.6286366656452205 0.0 -3.747409457935087 0.0 5.794104366140844" Properties=species:S:1:pos:R:3:momenta:R:3:forces:R:3:REF_forces:R:3 config_type=supercell_bulk_MD buildcell_config_i=37 RSS_min_vol_per_atom=10.0 buildcell_type=wide_even gap_rss_group=ALL gap_rss_iter=2 buildcell_symmetry="5 C2 C 2y @ 0.01" minim_pressure_GPa=0.17025600667561258 minim_config_type=minim_last_unconverged virial="4.870575240643909 1.6660977819604739e-07 1.2410899862869789 1.6660977506660624e-07 -1.0849153039349893 -4.180584654012165e-07 1.2410899862869642 -4.180584715629543e-07 5.222310592640408" minim_n_steps=20 energy=-51.27855302330136 stress="-0.02017119704927692 -6.900044526896415e-10 -0.005139900203239468 -6.900044526896415e-10 0.004493112065045457 1.7313642416703622e-09 -0.005139900203239468 1.7313642416703622e-09 -0.021627888044441632" free_energy=-51.27855302330136 E_per_atom_dist_to_nearby=0.0 primitive_cell="_JSON [[6.061038207019765, -3.5319485548968985, 0.0], [6.061038207019765, 3.5319485548968985, 0.0], [-3.6475565450991, 0.0, 5.639715526402562]]" orig_cell="_JSON [[6.061038207019765, -3.5319485548968985, 0.0], [6.061038207019765, 3.5319485548968985, 0.0], [-3.6475565450991, 0.0, 5.639715526402562]]" supercell_n="1 1 1" MD_pressure_GPa=0.17025600667561258 MD_time_fs=150.0 vasp_rundir=run_iter_2/run_VASP_gistgpnq REF_energy=27.92766872 REF_stress="-0.06528177340259439 -0.0837285973459138 -0.180415153958287 -0.06339041075838922 -0.006272941977509101 -0.010021976255016392" pbc="T T T"
Li       4.99782054      -2.75721442       3.60860113      -1.04775351       0.77344989      -0.70519689      -3.70270061       1.20639538      -1.75537645      -0.40701071       3.15751090       2.24132903
Li       4.73686466      -2.74868575       1.33614623       1.30932853      -0.37904239      -0.90516124       2.41928164      -1.96092162       2.71748359      -0.36601424       1.40566196      -1.54142316
Li      -0.59339080      -1.46052375       4.06897339      -1.08881869       0.90807809      -1.17920314       1.23337756      -0.65432190       0.42237756       2.08593622      -3.66487956       5.63162658
Li      11.53582741      -0.88597283       2.99806956       4.09752576      -2.57111754      -1.93283312       1.82180172      -1.29162800      -3.85434377      -2.30970581       0.56015475       5.30497682
Li       0.51570401       0.34943778       2.47774414      -1.63188303       0.47411239      -0.26359151      -3.30418384       0.29094520       0.75270364       4.70120992       2.91024232      -0.19450727
Li       5.66687674       2.73191720       2.33488172       1.33495102      -0.04285220       2.56359836       0.90545553       0.65751674      -0.01288757       4.80084292      59.83551054      87.30746184
Li       5.65705405       2.55165276       2.06117914      -3.16661882       1.38875541      -1.25279611      -0.92177284       1.06157890       1.17608860      -0.29583010     -61.77981223     -95.84040153
Li       3.68110529       2.95535455       3.14727058      -0.01922724       0.84770239       0.72113388      -0.06890442      -0.21195733      -3.86943351      -4.82942905      -0.01085167       0.69869585
Li       6.89455526       2.95910208      -0.21110806      -0.12838636      -1.81473537       0.75228382      -0.14454115       1.61054431       3.15271212       0.04233631      -0.21562409       0.46154485
Li       0.44014433       2.39242605       7.14876400       0.34088234       0.41564933       2.20176595       1.76218641      -0.70815167       1.27067579      -3.42233546      -2.19791293      -4.06930302
10
Lattice="6.35966736484333 -3.705968712236191 0.0 6.35966736484333 3.705968712236191 0.0 -3.8272727425510866 0.0 5.9175859902553585" Properties=species:S:1:pos:R:3:momenta:R:3:forces:R:3 config_type=supercell_bulk_MD buildcell_config_i=37 RSS_min_vol_per_atom=10.0 buildcell_type=wide_even gap_rss_group=ALL gap_rss_iter=2 buildcell_symmetry="5 C2 C 2y @ 0.01" minim_pressure_GPa=0.17025600667561258 minim_config_type=minim_last_unconverged virial="4.870575240643909 1.6660977819604739e-07 1.2410899862869789 1.6660977506660624e-07 -1.0849153039349893 -4.180584654012165e-07 1.2410899862869642 -4.180584715629543e-07 5.222310592640408" minim_n_steps=20 energy=-75.99717519742866 stress="-0.02017119704927692 -6.900044526896415e-10 -0.005139900203239468 -6.900044526896415e-10 0.004493112065045457 1.7313642416703622e-09 -0.005139900203239468 1.7313642416703622e-09 -0.021627888044441632" free_energy=-75.99717519742866 E_per_atom_dist_to_nearby=0.0 primitive_cell="_JSON [[6.061038207019765, -3.5319485548968985, 0.0], [6.061038207019765, 3.5319485548968985, 0.0], [-3.6475565450991, 0.0, 5.639715526402562]]" orig_cell="_JSON [[6.061038207019765, -3.5319485548968985, 0.0], [6.061038207019765, 3.5319485548968985, 0.0], [-3.6475565450991, 0.0, 5.639715526402562]]" supercell_n="1 1 1" MD_pressure_GPa=0.17025600667561258 MD_time_fs=200.0 vasp_rundir=run_iter_2/run_VASP_nzit58yl pbc="T T T"
Li       4.74651657      -2.86192264       3.68111411       0.62197684      -0.09080517      -0.51892037       1.64814260       7.64499932       1.38723666
Li       4.68633453      -2.80805871       1.23500988      -0.16911548      -0.69509316       1.30230005      -2.74347252       1.24198161       0.91074937
Li      -0.85025486      -1.12183838       4.59792478      -0.15593940       1.89345622       1.04100641       2.36352475       0.68350797      -1.78743110
Li      12.34867129      -0.94571943       2.50469752       2.48925123      -0.70803771      -1.63457298      -4.64680466       1.91575402      -3.83807085
Li      -0.86687304      -1.25895992       1.96966940       0.58439846       2.55260924       0.44373289       6.37117900       8.65295568       7.80854136
Li       5.85451404       2.78856735       2.17512541      -0.27364404      -0.64477412       0.03008450      -0.96997350      -1.15579645       1.31353133
Li       5.88185001       3.17393029       2.31263911      -0.07031163      -0.35691004      -0.41206258       2.84982839      -6.72148357       0.05492511
Li       3.64790666       2.68913057       2.94597600       1.61855667       0.66533265       1.32529899      -4.14024296      -4.13054821      -5.86118960
Li       7.08315026       3.33997876      -0.03799485      -1.15868857      -1.21943888       0.00393970      -2.31034545      -1.76799645       0.93051890
Li       1.92849447       3.22211999       8.20376861      -3.48648408      -1.39633902      -1.58080661       1.57816435      -6.36337392      -0.91881119
10