8
Lattice="7.04898095049684 0.0 0.0 0.0021322546014635522 4.039342534362233 0.0 0.16309909803398243 0.07424162206414248 5.548612126766695" Properties=species:S:1:pos:R:3:momenta:R:3:md_forces:R:3:REF_forces:R:3 config_type=supercell_bulk_MD buildcell_config_i=24 RSS_min_vol_per_atom=10.0 buildcell_type=narrow_even gap_rss_group=ALL gap_rss_iter=2 buildcell_symmetry="1 P1 P 1 @ 0.01" minim_pressure_GPa=0.7837992481046419 minim_config_type=minim_last_unconverged minim_energy=-7.622937268554883 minim_stress="0.004025259288181323 0.007871055622209229 0.013907699476579863 -0.012010901465454228 0.0060326479860349485 0.00210357848292065" minim_n_steps=20 E_per_atom_dist_to_nearby=1.5786017041478442 primitive_cell="_JSON [[3.523087062396489, 0.0, 0.0], [0.0021314055614300195, 4.037734113154713, 0.0], [0.16303415378972172, 0.07421205987712996, 5.546402731217532]]" orig_cell="_JSON [[3.523087062396489, 0.0, 0.0], [0.0021314055614300195, 4.037734113154713, 0.0], [0.16303415378972172, 0.07421205987712996, 5.546402731217532]]" supercell_n="2 1 1" MD_pressure_GPa=0.7837992481046419 MD_temperature_K=1166.6666666666667 MD_time_fs=100.0 md_energy=-14.344392393646315 vasp_rundir=run_iter_2/run_VASP_7md_vayt REF_energy=-13.58977652 REF_stress="0.0012508737888081909 -0.017749118711893764 -0.011990063717449546 0.004794533567818743 0.001691488038719982 -0.003877040458185171" pbc="T T T"
Li       1.52520016       3.02737877       2.59061094       0.20313213      -1.07253337       1.35167005      -1.32470602      -0.75867692       1.26159190       0.16638833       1.67070200      -1.33574549
Li       0.86548572       1.71827161       3.86119232       0.03715433       1.01307881      -1.12099489       0.63288411       1.40003323      -0.75068567      -0.72363959      -1.17080329       1.42213852
Li       2.60403331       3.77368634       4.92268360      -0.42512359      -0.03835434      -0.19355966       0.69849158       0.01897240       0.22310534       0.05590753       0.04719654       0.36032989
Li       3.07885145       1.42618093       1.53194325      -1.09151894      -1.70616856       1.05814960      -0.24995183      -0.18029259      -0.65463932      -0.01455013      -0.16001625      -0.40237618
Li       4.52392476       3.53132431       2.32081012      -0.25513098       1.68332978      -0.47389017       0.32858280       0.13552739      -0.27947200       0.20854337       0.21766175      -0.07711873
Li       4.41544671       1.83141097       4.08542117      -0.17063814       0.01284926      -0.19177459      -0.16615775      -0.19676796       0.46294371      -0.11203251      -0.24513918       0.42865968
Li       5.93241886       3.92033489       5.27741837       1.01494420       0.55732793      -0.78606983       0.09966286      -0.39855852      -0.02554502       0.17028725      -0.32410973      -0.34166554
Li       6.28864002       1.58432294       1.60795875       0.68718099      -0.44952951       0.35646949      -0.01880575      -0.02023703      -0.23729894       0.24909575      -0.03549185      -0.05422215
8
Lattice="7.048054722221476 0.0 0.0 0.0021319744255748644 4.038811769235264 0.0 0.16307766699347512 0.07423186679738156 5.547883045289963" Properties=species:S:1:pos:R:3:momenta:R:3:md_forces:R:3:REF_forces:R:3 config_type=supercell_bulk_MD buildcell_config_i=24 RSS_min_vol_per_atom=10.0 buildcell_type=narrow_even gap_rss_group=ALL gap_rss_iter=2 buildcell_symmetry="1 P1 P 1 @ 0.01" minim_pressure_GPa=0.7837992481046419 minim_config_type=minim_last_unconverged minim_energy=-7.622937268554883 minim_stress="0.004025259288181323 0.007871055622209229 0.013907699476579863 -0.012010901465454228 0.0060326479860349485 0.00210357848292065" minim_n_steps=20 E_per_atom_dist_to_nearby=0.8002094971355467 primitive_cell="_JSON [[3.523087062396489, 0.0, 0.0], [0.0021314055614300195, 4.037734113154713, 0.0], [0.16303415378972172, 0.07421205987712996, 5.546402731217532]]" orig_cell="_JSON [[3.523087062396489, 0.0, 0.0], [0.0021314055614300195, 4.037734113154713, 0.0], [0.16303415378972172, 0.07421205987712996, 5.546402731217532]]" supercell_n="2 1 1" MD_pressure_GPa=0.7837992481046419 MD_temperature_K=1700.0 MD_time_fs=125.0 md_energy=-20.571530049744695 vasp_rundir=run_iter_2/run_VASP_0crjusil REF_energy=-7.81747406 REF_stress="-0.006960437404480195 0.006370464477819948 -0.04044325256577855 -0.042706323523704244 -0.029800488079872 -0.006305840535205993" pbc="T T T"
Li       1.28142708       2.66834576       3.74663099       0.84553917       1.82226416       4.20118584      -1.95281030      -2.19837726      -4.29053330       3.89284020       2.91052207       8.96240651
Li       0.92196546       2.37507192       2.96563050      -1.98707069      -0.22531644      -3.13847742       2.59014081       2.16148719       4.25329631      -3.79383064      -3.01004139      -8.85294755
Li       2.69482495       3.94060599       4.99976103       0.63557339       1.19388762       0.47327308      -0.20528846       0.17648868      -0.07552846       0.15088695       0.10619588      -0.05163001
Li       2.66498413       0.88902996       1.64024032      -1.24268822      -1.29855306      -0.02327854      -0.38639575       0.45317041       0.57013831      -0.66505371       0.71829608       0.23321603
Li       4.48400088       3.82667856       2.18946294      -0.23411353      -0.14352532       0.05023093      -0.39711751      -0.66783875       0.21320098       0.58235406      -1.04866954       0.10552644
Li       4.35417750       1.74736250       4.18311378       0.23706453      -0.49510719       0.47134707       0.46450255       0.21790406       0.03306025       0.16147616       0.37333534       0.16254474
Li       6.35350128       3.94220478       4.98478745       1.29502328      -0.18134930      -0.91777009      -0.15199823       0.09498610      -0.32681399      -0.07531531      -0.06453853      -0.33926082
Li       6.47527840       1.42087649       1.48496913       0.45067207      -0.67230048      -1.11651087       0.03896689      -0.23782045      -0.37682009      -0.25335771       0.01490009      -0.21985536
8
Lattice="7.032742414445588 0.0 0.0 0.002127342587449119 4.0300372163555265 0.0 0.16272337130100487 0.07407059376021331 5.535829947514446" Properties=species:S:1:pos:R:3:momenta:R:3:md_forces:R:3:REF_forces:R:3 config_type=supercell_bulk_MD buildcell_config_i=24 RSS_min_vol_per_atom=10.0 buildcell_type=narrow_even gap_rss_group=ALL gap_rss_iter=2 buildcell_symmetry="1 P1 P 1 @ 0.01" minim_pressure_GPa=0.7837992481046419 minim_config_type=minim_last_unconverged minim_energy=-7.622937268554883 minim_stress="0.004025259288181323 0.007871055622209229 0.013907699476579863 -0.012010901465454228 0.0060326479860349485 0.00210357848292065" minim_n_steps=20 E_per_atom_dist_to_nearby=0.0 primitive_cell="_JSON [[3.523087062396489, 0.0, 0.0], [0.0021314055614300195, 4.037734113154713, 0.0], [0.16303415378972172, 0.07421205987712996, 5.546402731217532]]" orig_cell="_JSON [[3.523087062396489, 0.0, 0.0], [0.0021314055614300195, 4.037734113154713, 0.0], [0.16303415378972172, 0.07421205987712996, 5.546402731217532]]" supercell_n="2 1 1" MD_pressure_GPa=0.7837992481046419 MD_temperature_K=2500.0 MD_time_fs=200.0 md_energy=-26.973206026829068 vasp_rundir=run_iter_2/run_VASP_um433ii9 REF_energy=-4.63132614 REF_stress="-0.03887038250433569 0.0163698941112398 -0.03045283969106835 0.03294345329645694 0.013578953311113003 0.009563854753010262" pbc="T T T"
Li       1.15293043       2.65782267       3.23798621       1.70462932      -0.36765180       0.71202111       2.89788521      -3.91625490       6.42107898      -1.85562521       2.91878534      -6.46958891
Li       1.50728014       2.20034036       4.17007748      -0.49153674       1.25221321       0.01540126      -2.86530249       4.21148734      -7.09295905       2.31021886      -3.01047527       6.06422959
Li       2.00641475       4.51593538       6.18369536       4.87333179      -0.05832749      -1.72380991       4.20779449       0.23410330      -1.92198641      -8.77215417      -1.96835540       5.34624993
Li       2.63699869       0.56607903       0.18676141      -4.09015762      -1.51105310       1.40227711      -4.06995099      -1.35755831       2.50834266       8.63651876       1.39536126      -5.20985683
Li       4.34066579       3.57151445       2.07423408      -1.22490121       1.07208237      -0.18613025      -0.04353364      -0.41705682       0.55479455      -0.29971253      -0.15870967       0.07805615
Li       4.69818025       1.79966050       4.31692170      -0.56843405      -0.37209723      -0.07549417       0.03182447       0.38889066      -0.44026498      -0.11782073       0.29619812       0.03577442
Li       6.62356886       3.96649991       4.55469441      -0.56566383      -0.01465719       0.63952535      -0.53058490       0.54549487       0.67698809      -0.22910142       0.35613798       0.18271901
Li       6.20061655       1.48711236       1.41331621       0.36273235      -0.00050877      -0.78379050       0.37186784       0.31089386      -0.70599383       0.32767644       0.17105765      -0.02758335
8
Lattice="5.481271271868894 0.0 0.0 -1.3703178179672235 2.3734600832361528 0.0 0.0 0.0 8.82703167836069" Properties=species:S:1:pos:R:3:momenta:R:3:md_forces:R:3:REF_forces:R:3 config_type=supercell_bulk_MD buildcell_config_i=48 RSS_min_vol_per_atom=7.0 buildcell_type=narrow gap_rss_group=ALL gap_rss_iter=2 buildcell_symmetry="187 P-6m2 P -6 2 @ 0.01" minim_pressure_GPa=0.24765009428212514 minim_config_type=minim_last_unconverged minim_energy=-16.11024467170352 minim_stress="0.31008617038428676 0.3100861703842873 0.19822731466828913 1.9939596143137097e-44 6.929457380685614e-45 1.1102230246251565e-16" minim_n_steps=20 E_per_atom_dist_to_nearby=1.330104064006182 primitive_cell="_JSON [[2.7352170140367633, 0.0, 0.0], [-1.3676085070183817, 2.3687674190192545, 0.0], [0.0, 0.0, 8.809579395935112]]" orig_cell="_JSON [[2.7352170140367633, 0.0, 0.0], [-1.3676085070183817, 2.3687674190192545, 0.0], [0.0, 0.0, 8.809579395935112]]" supercell_n="2 1 1" MD_pressure_GPa=0.24765009428212514 MD_temperature_K=633.3333333333334 MD_time_fs=50.0 md_energy=-62.856282519105264 vasp_rundir=run_iter_2/run_VASP_i9durnc2 REF_energy=4.15039106 REF_stress="0.694361447256989 0.6686601597738157 0.6591037422907327 -0.10383334475130047 0.003145654745282375 0.005062333605860591" pbc="T T T"
Li      -0.01511408      -0.03781180       4.49566627       0.51034366      -0.08641367      -0.40812701       0.63437738       0.37732024      -2.36106130       0.25070331       0.19250275       0.06290671
Cu      -0.02023366       1.56859362       7.76316515      -0.74528934      -2.59320069      -6.98524548       0.21312532      -3.66085879       4.82056016       0.55785279      -2.98323432     -15.24209043
Cu       0.08379734       1.40289925       1.09341273       3.82679148      -5.22800453       5.41649822       1.13388411       2.13602975      -9.69422910      -1.67307634       2.05401245      13.61828259
Cu       1.43968407       0.74507134      -0.03658221       1.42692568      -3.27826534      -1.15650398       1.97749677      -2.07549263      -1.39692765       1.38159765      -1.23658000      -3.85084055
Li       2.78933770       0.09047333       4.44332396       0.27095501       0.78865770       0.36477351      -0.58977924      -0.80847489      -1.66088744      -0.25094875      -0.19613018      -0.04863482
Cu       2.77526581       1.82810007       7.69657332       1.47048463       7.98622573      -7.41720276       1.51384832      -0.94555381      11.18514357      -0.35864999      -5.29003908     -15.83140497
Cu       2.64031599       1.53778859       1.10297559      -5.54464055      -0.77162270       8.66931823      -3.48912418       2.07304699      -3.74574563       1.33209690       3.07393284      16.92145079
Cu       4.04004477       0.82332946       0.02229153      -1.21557058       3.18262349       1.51648927      -1.39382847       2.90398314       2.85314738      -1.23957558       4.38553554       4.37033067
8
Lattice="5.490727047653366 0.0 0.0 -1.3726817619133416 2.377554554257074 0.0 0.0 0.0 8.842259246611393" Properties=species:S:1:pos:R:3:momenta:R:3:md_forces:R:3:REF_forces:R:3 config_type=supercell_bulk_MD buildcell_config_i=48 RSS_min_vol_per_atom=7.0 buildcell_type=narrow gap_rss_group=ALL gap_rss_iter=2 buildcell_symmetry="187 P-6m2 P -6 2 @ 0.01" minim_pressure_GPa=0.24765009428212514 minim_config_type=minim_last_unconverged minim_energy=-16.11024467170352 minim_stress="0.31008617038428676 0.3100861703842873 0.19822731466828913 1.9939596143137097e-44 6.929457380685614e-45 1.1102230246251565e-16" minim_n_steps=20 E_per_atom_dist_to_nearby=0.6185249603105447 primitive_cell="_JSON [[2.7352170140367633, 0.0, 0.0], [-1.3676085070183817, 2.3687674190192545, 0.0], [0.0, 0.0, 8.809579395935112]]" orig_cell="_JSON [[2.7352170140367633, 0.0, 0.0], [-1.3676085070183817, 2.3687674190192545, 0.0], [0.0, 0.0, 8.809579395935112]]" supercell_n="2 1 1" MD_pressure_GPa=0.24765009428212514 MD_temperature_K=900.0 MD_time_fs=75.0 md_energy=-70.44292587263749 vasp_rundir=run_iter_2/run_VASP_b8ymrham REF_energy=8.76282245 REF_stress="0.5289634717218813 0.5567246857744188 0.5733540454992514 -0.02064604863194369 0.020720845947323412 -0.002482808410981402" pbc="T T T"
Li       0.26012669       0.24424722       4.17895727       1.00713070       1.14747524       0.08211911       0.45420043      -0.08353152       0.18118799      -0.20348830      -0.06213881      -0.23435154
Cu      -0.08465614       1.26108230       7.80787712      -3.83572329     -10.53310675       2.54148075      -0.09705667       3.44997064      -4.03443737      -0.01784638       1.00911504     -17.77061252
Cu       0.24203554       1.41937261       0.90222477       9.61677863       3.45251082      -5.32869806       7.38927348      -1.79619078       6.92193705      -2.29274021       1.37207303      18.96752193
Cu       1.51874803       0.67284222      -0.18373313       0.30214397      -0.34288449      -7.00555612      -2.95341193      -2.52981613      -4.86326879       4.84658638      -8.38716854      -8.71822638
Li       2.87809292       0.31064248       4.47727197       0.36483904       1.17232009       1.15330550      -0.57151982       0.38622291       1.60572261       0.20158684       0.04668247       0.21325144
Cu       2.82186562       1.86965840       7.92165879      -2.82082690      -1.53430627       4.89878630      -3.92242003       5.45687819      -9.77463231      -0.86383284      -0.52744859     -20.36994182
Cu       2.44043723       1.69647100       1.05938066      -4.71616954       5.51614399      -4.17447045      -1.23808488      -3.21565942       3.52269134      -0.44985172      -0.71661193      20.14672451
Cu       4.00011913       0.94515458       0.19742706       0.08182740       1.12184739       7.83303297       0.93901942      -1.66787390       6.44079947      -1.22041377       7.26549733       7.76563438
7
Lattice="2.3746838176937506 0.05784067518521151 -0.03317238701417488 -0.4319961604926018 5.961183442689599 0.27674470358560116 -0.770798832876029 -2.4184748879127684 8.700751325401558" Properties=species:S:1:pos:R:3:minim_forces:R:3:momenta:R:3:md_forces:R:3:REF_forces:R:3 config_type=supercell_vacancy_minim_last_unconverged_MD buildcell_config_i=61 RSS_min_vol_per_atom=9.0 buildcell_type=narrow gap_rss_group=ALL gap_rss_iter=2 buildcell_symmetry="2 P-1 -P 1 @ 0.01" minim_pressure_GPa=0.4719898487035834 minim_config_type=minim_last_unconverged minim_n_steps=20 E_per_atom_dist_to_nearby=0.0 primitive_cell="_JSON [[2.5550877470264375, 0.0, 0.0], [-0.6075703077394446, 5.860915011406694, 0.0], [-0.6435874485977395, -2.74134381404678, 8.51855420014873]]" orig_cell="_JSON [[2.5550877470264375, 0.0, 0.0], [-0.6075703077394446, 5.860915011406694, 0.0], [-0.6435874485977395, -2.74134381404678, 8.51855420014873]]" supercell_n="1 1 1" vacancy_Z=3 vacancy_pos="_JSON [[0.8026773066869959, -0.11282593869877111, 3.9005865313360712]]" minim_energy=-15.339625903917213 minim_stress="0.28012191885848486 0.03375890639292341 0.1793873653315234 -0.05703930458689802 0.022999593743840294 -0.028256545305130873" MD_pressure_GPa=0.4719898487035834 MD_temperature_K=583.3333333333334 MD_time_fs=100.0 md_energy=-17.88902550619735 vasp_rundir=run_iter_2/run_VASP_8ntyerwj REF_energy=-9.5290487 REF_stress="0.279749919972119 0.32774484391602476 0.341227031884299 0.03213895960751745 0.0016047118629881334 0.002741314036780133" pbc="T T T"
Li       1.43224138       3.74253847       5.47622040       0.01287463       2.34393593       0.50929622      -0.17942712      -0.27656279      -0.67482873       0.18885122       1.04772003       1.23904213      -0.18335868       1.20711012      -1.29777713
Li      -0.11955725       2.00200306       6.38947119       0.61220946       1.07411050       0.66389328      -0.62179808       1.03379512      -0.03688480      -0.95176308      -0.15771469      -0.96395917      -0.03683491      -1.23696790       0.38774034
Li       2.09962028       1.67938881       2.38485319      -0.15923154      -1.51650291       0.15928494       0.08580675       0.71229904       0.51293178      -0.95880016      -0.13475451      -0.72724404      -0.19284049      -1.70049092       1.66462760
Li       0.77549935      -0.44851482       6.84797416       0.98543615      -1.96575411      -1.26355187      -0.81328621       0.41914757      -0.35366822      -0.03463163      -0.60018699       0.06066329       0.04051787       0.09228653       0.05496446
Li      -0.16036327       3.31177839       1.47534024      -0.53439354       0.30077835      -0.74241183       0.61768603       0.26979479      -0.55920009       0.70798343       1.28048035       1.21894044       0.00381512       1.59747655      -0.53219320
Cu       0.47492062       2.44100878       8.62059540      -0.27504521      -2.45199479       0.85711830      -1.13626403      -1.62169391       2.23064974       0.88039329      -0.46700523       0.62958838       0.03918518       0.96334414      -0.15391983
Cu       0.43857614       1.38669872       0.25412136      -0.64184995       2.21542702      -0.18362903       2.04728265      -0.53677981      -1.11899968       0.16796695      -0.96853896      -1.45703103       0.32951590      -0.92275851      -0.12344223
7
Lattice="2.340640274105859 0.05701146940541506 -0.032696826607009524 -0.42580304964140037 5.875723725124459 0.2727772826140024 -0.7597486360165605 -2.3838035541337574 8.576017074556582" Properties=species:S:1:pos:R:3:minim_forces:R:3:momenta:R:3:md_forces:R:3:REF_forces:R:3 config_type=supercell_vacancy_minim_last_unconverged_MD buildcell_config_i=61 RSS_min_vol_per_atom=9.0 buildcell_type=narrow gap_rss_group=ALL gap_rss_iter=2 buildcell_symmetry="2 P-1 -P 1 @ 0.01" minim_pressure_GPa=0.4719898487035834 minim_config_type=minim_last_unconverged minim_n_steps=20 E_per_atom_dist_to_nearby=0.0 primitive_cell="_JSON [[2.5550877470264375, 0.0, 0.0], [-0.6075703077394446, 5.860915011406694, 0.0], [-0.6435874485977395, -2.74134381404678, 8.51855420014873]]" orig_cell="_JSON [[2.5550877470264375, 0.0, 0.0], [-0.6075703077394446, 5.860915011406694, 0.0], [-0.6435874485977395, -2.74134381404678, 8.51855420014873]]" supercell_n="1 1 1" vacancy_Z=3 vacancy_pos="_JSON [[0.8026773066869959, -0.11282593869877111, 3.9005865313360712]]" minim_energy=-15.339625903917213 minim_stress="0.28012191885848486 0.03375890639292341 0.1793873653315234 -0.05703930458689802 0.022999593743840294 -0.028256545305130873" MD_pressure_GPa=0.4719898487035834 MD_temperature_K=1250.0 MD_time_fs=200.0 md_energy=-29.4684102262356 vasp_rundir=run_iter_2/run_VASP_wn879577 REF_energy=1.21877661 REF_stress="0.28875514515933703 0.24366817349080122 0.40840633029788875 0.02895247324033353 -0.0026212403585710847 0.0205429558656059" pbc="T T T"
Li       1.36654013       2.79012006       6.15658509       0.01287463       2.34393593       0.50929622      -0.79994512      -0.71206400       0.38077958       0.93006379       4.59429550       0.28313519      -3.32186066      14.27820119      -4.65815248
Li      -0.78048517       2.03780530       6.41141844       0.61220946       1.07411050       0.66389328       0.27191468      -0.22782755      -0.88892126       0.38628900      -3.39591373       0.21126708       3.60175372     -13.32303338       4.14491921
Li       1.32765749       1.63152637       2.47446939      -0.15923154      -1.51650291       0.15928494      -0.40623521       1.99480153       0.42037947       0.17904769       1.60481800       0.85918543       0.72736585      -8.52597838      -0.25895323
Li       0.64730205       0.03836686       6.35770001       0.98543615      -1.96575411      -1.26355187       0.27508433      -1.18311901      -1.05325074      -0.16757979      -1.61965039      -0.99187781       0.00131073      -0.90368032       0.08189035
Li      -1.11297245       2.55933608       2.58141014      -0.53439354       0.30077835      -0.74241183      -1.41692600      -2.01606492      -0.43096355       0.12409183      -0.70988867      -1.45008027      -0.52191515       8.45198960       0.43009523
Cu       0.61587343       2.40283042       8.40097337      -0.27504521      -2.45199479       0.85711830       1.18570318       0.85386834       2.84483305      -1.17412501      -0.61892756       1.11502674      -0.26684782       0.44317120       0.26790923
Cu       0.55992361       1.48823191       0.15743129      -0.64184995       2.21542702      -0.18362903       0.89040414       1.29040560      -1.27285654      -0.27778752       0.14526685      -0.02665635      -0.21980667      -0.42066992      -0.00770831
7
Lattice="5.1242759547685575 -0.05344588391474314 -0.06033599247116145 -2.608423470582155 4.382988800351417 0.08691652475542104 -0.05762585782428231 0.06258423034063659 4.654425361164157" Properties=species:S:1:pos:R:3:minim_forces:R:3:momenta:R:3:md_forces:R:3:REF_forces:R:3 config_type=supercell_vacancy_minim_last_unconverged_MD buildcell_config_i=66 RSS_min_vol_per_atom=9.0 buildcell_type=narrow gap_rss_group=ALL gap_rss_iter=2 buildcell_symmetry="150 P321 P 3 2\" @ 0.01" minim_pressure_GPa=0.0999696718553184 minim_config_type=minim_last_unconverged minim_n_steps=20 E_per_atom_dist_to_nearby=0.0 primitive_cell="_JSON [[5.398615684006135, 0.0, 0.0], [-2.6993078420030674, 4.675338327618416, 0.0], [0.0, 0.0, 5.156124016742036]]" orig_cell="_JSON [[5.398615684006135, 0.0, 0.0], [-2.6993078420030674, 4.675338327618416, 0.0], [0.0, 0.0, 5.156124016742036]]" supercell_n="1 1 1" vacancy_Z=3 vacancy_pos="_JSON [[-1.457740934747474, 3.951489397404575, 1.6740118183710186]]" minim_energy=-16.987170402809607 minim_stress="0.2566423182431694 0.30444800435091135 0.4211462910672815 -0.0031749217812470417 0.01516241866577768 0.049075330969105026" MD_pressure_GPa=0.0999696718553184 MD_temperature_K=583.3333333333334 MD_time_fs=100.0 md_energy=-74.74937036389117 vasp_rundir=run_iter_2/run_VASP_2c28yr0h REF_energy=54.73016234 REF_stress="0.1902272141555893 0.24396009500802224 0.4070052710008937 -0.008841901807883377 0.02163576670635188 0.015132581836011273" pbc="T T T"
Li       5.48804110      -0.13025555       2.28170981       1.32466429      -0.46342420      -3.08887742      -0.65785261       0.85035906      -0.32766650       0.17949168       1.40016090       0.35282691      29.31699640      -7.24084935      -2.18868937
Li      -0.44825752       0.31056497       2.66814854      -3.67340539      -5.33082703      -0.63611429      -0.30920936      -0.75494440      -0.71765542      -1.64190489      -1.00595833       3.81899505     -22.10134313       7.69370171      15.77259994
Li       2.06716644       4.55147073       2.10932526       2.78852057       6.21523819      -0.29157379       0.41679831       0.37337605       0.52256881      -1.41620332      -1.51483380      -4.36435245     -18.55317230       1.88436856     -13.05874535
Li      -0.21093828      -0.33891659       2.41559887       0.21254097       0.05936778       1.56951711       0.16503432       0.90992586      -0.77362059      -2.26230047      -3.24388178       0.67862278      -7.09688573     -26.24494769       1.19745513
Li       2.51756420       4.84126279       2.40099959      -0.17220211      -0.11193408       2.32076533       1.29761496      -1.20595587       1.39898794       5.42758117       4.36244605      -0.01883209      18.49668761      23.91605903      -1.79598533
Cu       2.35219508       1.60032078       4.74430372      -0.63234507       0.41513739      -0.12643653      -0.61256456       0.08545109       0.69222673       0.92558472      -0.41851661      -0.19539250       0.00786347       0.06228874       0.03230209
Cu      -0.04755706       2.89038979       0.13500947       0.15222674      -0.78355806       0.25271959      -0.29982106      -0.25821177      -0.79484096      -1.21224889       0.42058357      -0.27186771      -0.07014633      -0.07062100       0.04106288
7
Lattice="3.0450038045376706 -0.03368894516935529 0.008890530610565746 -0.21879540706521503 5.295189185990518 -0.052019247074708196 -1.2907417551703417 -2.1766549018999037 6.087196328132651" Properties=species:S:1:pos:R:3:minim_forces:R:3:momenta:R:3:md_forces:R:3:REF_forces:R:3 config_type=supercell_interstitial_minim_last_unconverged_MD buildcell_config_i=2 RSS_min_vol_per_atom=8.0 buildcell_type=narrow gap_rss_group=ALL gap_rss_iter=2 buildcell_symmetry="1 P1 P 1 @ 0.01" minim_pressure_GPa=0.07607702175513792 minim_config_type=minim_last_unconverged minim_n_steps=20 E_per_atom_dist_to_nearby=0.0 primitive_cell="_JSON [[2.9846530125823936, 0.0, 0.0], [-0.15600105561948005, 5.283767778077909, 0.0], [-1.3063309206100404, -2.128622611688299, 6.03510713900313]]" orig_cell="_JSON [[2.9846530125823936, 0.0, 0.0], [-0.15600105561948005, 5.283767778077909, 0.0], [-1.3063309206100404, -2.128622611688299, 6.03510713900313]]" supercell_n="1 1 1" interstitial=6 minim_energy=-25.662510954909195 minim_stress="0.387930298195516 0.4753817042622058 0.18739744819179416 -0.048121938857104196 -0.24439593390464084 -0.09542691163560338" MD_pressure_GPa=0.07607702175513792 MD_temperature_K=1250.0 MD_time_fs=200.0 md_energy=-52.546171366101504 vasp_rundir=run_iter_2/run_VASP_abuo0tlz REF_energy=16.65245638 REF_stress="0.6555982642260262 0.6436501329392011 0.4856682527682032 -0.12563880285526136 0.0343644991352504 -0.05061115119724509" pbc="T T T"
Li       2.15234052       1.59882429       2.65293969       0.47058028      -4.95166111       5.64045649       0.58098440       0.61481532      -0.10267860      -0.95308525       0.48041392       0.16214985     -25.87747907      10.75385107      44.18107815
Li      -1.50991243       0.77328346       5.73773243      -4.44060103       0.37066313       3.46396329      -0.18164075      -1.03837596      -0.17202818      -2.40418420      -0.25556125      -0.03096699      17.06999293      24.48546984      20.47467792
Li       2.37917702       1.50007284       2.25288297      -1.00418618       1.91928694      -2.92899473       0.14773411      -0.50998907       0.59625619       1.11375544       0.44174999       0.84141702      25.89195828     -10.86235998     -44.06294742
Cu       1.20959846       1.27081290       0.47340214       2.58024866       4.12632711      -2.15089877      -1.89115305       6.37329867       1.30325875      -3.13436552      -1.66882735      -0.45366734      -0.72546439      -0.78337073       0.11244881
Cu       0.01351924       2.16065668       4.52475486       2.08968690       0.37458821      -0.01405214      -0.89827466      -1.79414396      -0.87667431       1.18557042       2.31115804       1.35012278       0.40876002       0.43760231       0.15983986
Cu       0.68352710      -0.87315693       2.58154146      -1.57509639       3.59310827       2.18331905       2.78434974      -4.20274884      -0.47678485       1.50425565      -0.59341351      -0.69359677       0.03346011       0.12921681      -0.07345219
Li       1.26766126       0.36683505       5.44584042       1.87936776      -5.43231255      -6.19379320      -0.54199978       0.55714385      -0.27134900       2.68805347      -0.71551985      -1.17545854     -16.80122788     -24.16040933     -20.79164512
9
Lattice="5.357358124701951 -3.1706261413399637e-18 0.0 -2.6786790623509753 4.63960823316285 0.0 0.0 0.0 4.966377832096447" Properties=species:S:1:pos:R:3:minim_forces:R:3:momenta:R:3:md_forces:R:3 config_type=supercell_interstitial_minim_last_unconverged_MD buildcell_config_i=66 RSS_min_vol_per_atom=9.0 buildcell_type=narrow gap_rss_group=ALL gap_rss_iter=2 buildcell_symmetry="150 P321 P 3 2\" @ 0.01" minim_pressure_GPa=0.0999696718553184 minim_config_type=minim_last_unconverged minim_n_steps=20 E_per_atom_dist_to_nearby=0.0 primitive_cell="_JSON [[5.398615684006135, 0.0, 0.0], [-2.6993078420030674, 4.675338327618416, 0.0], [0.0, 0.0, 5.156124016742036]]" orig_cell="_JSON [[5.398615684006135, 0.0, 0.0], [-2.6993078420030674, 4.675338327618416, 0.0], [0.0, 0.0, 5.156124016742036]]" supercell_n="1 1 1" interstitial=8 minim_energy=-37.290222017391514 minim_stress="0.18942625023549117 0.1894262502354913 0.6235271397158315 1.7936939225309188e-31 0.0 -2.7755575615628914e-17" MD_pressure_GPa=0.0999696718553184 MD_temperature_K=316.6666666666667 MD_time_fs=50.0 md_energy=-139.29291336666702 vasp_rundir=run_iter_2/run_VASP_ceghnvbb DFT_FAILED_VASP=T pbc="T T T"
Li       5.15266679       0.19390236       2.68815461       3.17592090      -1.82505458      -1.79234133       1.49537153      -0.99611496      -0.07555946     -12.03020343       2.58596364      12.27043854
Li      -0.02520101       0.21793839       2.49225077      -3.16850408      -1.83790089      -1.79234133      -2.11573068       1.51532077      -4.72545713      -4.88457581       9.38188792      -0.18212967
Li       2.95372502       4.41001869       2.74824480      -0.00741682       3.66295547      -1.79234133       1.00821043      -0.11323916      -0.39930152       5.29189463      -3.59401317       8.24561058