6
Lattice="3.676826402871751 0.0 0.0 -1.8384132014358756 3.184225070192292 0.0 0.0 0.0 6.943466375417525" Properties=species:S:1:pos:R:3:momenta:R:3:md_forces:R:3:REF_forces:R:3 config_type=supercell_bulk_MD buildcell_config_i=2 RSS_min_vol_per_atom=8.0 buildcell_type=narrow gap_rss_group=ALL gap_rss_iter=2 buildcell_symmetry="152 P3_121 P 31 2\" @ 0.01" minim_pressure_GPa=0.046730359646825564 minim_config_type=minim_last_unconverged minim_energy=-19.039408216381005 minim_stress="-0.0001242760557253436 -0.00012427605572534373 -0.0009737908115315812 0.0 0.0 -2.5115688247649736e-20" minim_n_steps=20 E_per_atom_dist_to_nearby=0.008255880974087582 primitive_cell="_JSON [[3.676577300805926, 0.0, 0.0], [-1.838288650402963, 3.1840093414751536, 0.0], [0.0, 0.0, 6.9429959610904435]]" orig_cell="_JSON [[3.676577300805926, 0.0, 0.0], [-1.838288650402963, 3.1840093414751536, 0.0], [0.0, 0.0, 6.9429959610904435]]" supercell_n="1 1 1" MD_pressure_GPa=0.046730359646825564 MD_temperature_K=366.6666666666667 MD_time_fs=25.0 md_energy=-18.98987293068962 vasp_rundir=run_iter_2/run_VASP_zwsy9i5h REF_energy=-9.45975981 REF_stress="0.766468960916946 0.7632888597883604 0.8530905543469531 -0.000497413730579884 -0.0013144324493690677 0.0004091687592299687" pbc="T T T"
Li      -1.39453580       2.40913284       1.12303717      -0.10720434      -0.10158628       0.31175382      -0.11681193       0.04361912       0.22138873       0.38111398      -0.68505907       0.07945704
Li       2.75044633       0.00616020       5.77985041      -0.66678011      -0.02292324       0.24598436       0.40074712       0.00289571      -0.07364650      -0.75368351       0.05952517      -0.01288211
Li       0.44473252       0.75971985       3.47664240      -0.01180554      -0.61415957      -0.38173788      -0.16745258       0.45914997       0.10411190       0.25707487       0.85010646       0.01010553
Cu       0.75197953       1.22947789      -0.02156137       1.33453781      -0.04910958      -1.37537041      -0.38215632       0.25234866      -0.11660223      -0.20637239      -0.30721134      -0.18589296
Cu       2.20616249      -0.02694499       2.33574203      -0.45781772      -0.90388912       0.38094216       0.15883305       0.04669360      -0.38507212       0.42804455      -0.06736094       0.07014605
Cu      -1.11560385       1.98269825       4.63318127      -0.09093010       1.69166780       0.81842794       0.10684065      -0.80470705       0.24982021      -0.10617750       0.14999972       0.03906646
6
Lattice="3.676794271756032 0.0 0.0 -1.838397135878016 3.184197243829826 0.0 0.0 0.0 6.94340569773053" Properties=species:S:1:pos:R:3:momenta:R:3:md_forces:R:3:REF_forces:R:3 config_type=supercell_bulk_MD buildcell_config_i=2 RSS_min_vol_per_atom=8.0 buildcell_type=narrow gap_rss_group=ALL gap_rss_iter=2 buildcell_symmetry="152 P3_121 P 31 2\" @ 0.01" minim_pressure_GPa=0.046730359646825564 minim_config_type=minim_last_unconverged minim_energy=-19.039408216381005 minim_stress="-0.0001242760557253436 -0.00012427605572534373 -0.0009737908115315812 0.0 0.0 -2.5115688247649736e-20" minim_n_steps=20 E_per_atom_dist_to_nearby=0.19128713311339718 primitive_cell="_JSON [[3.676577300805926, 0.0, 0.0], [-1.838288650402963, 3.1840093414751536, 0.0], [0.0, 0.0, 6.9429959610904435]]" orig_cell="_JSON [[3.676577300805926, 0.0, 0.0], [-1.838288650402963, 3.1840093414751536, 0.0], [0.0, 0.0, 6.9429959610904435]]" supercell_n="1 1 1" MD_pressure_GPa=0.046730359646825564 MD_temperature_K=1166.6666666666667 MD_time_fs=100.0 md_energy=-17.891685417853765 vasp_rundir=run_iter_2/run_VASP_4we_yy95 REF_energy=-9.01107603 REF_stress="0.7472661567750173 0.7626953547916857 0.8393257983308603 -0.01690579540255391 0.01734967425508947 0.014040448754499765" pbc="T T T"
Li      -1.66760781       2.47028027       1.38515109      -1.00724505       1.00573176       0.24012597       2.59410902      -1.33785328      -0.10772023       1.54042385      -1.00020274      -0.80493255
Li       2.76279147       0.10621501       5.73771125      -0.00760687       0.14939958       0.26317212      -1.52850243      -0.85767494      -0.61252672      -1.03686415      -0.51145122       0.08074280
Li       0.23342371       0.97012561       3.49828307       0.71834658      -0.92890894       0.11120039       2.32632820      -1.47531439      -0.66709422       1.51359250       0.06877198      -0.13430427
Cu       0.76858030       1.10742913      -0.15424298      -1.90950546       0.09200830       0.65938659       1.66285118       0.65827233       2.68719826       0.32055453       0.41179366       0.09202618
Cu       2.25824678      -0.04723515       2.41453960       2.29934198       3.58098323       1.20859895      -4.68027127       2.53032948       1.43439713      -1.78487595       0.43243206       0.62050520
Cu      -1.13275467       2.08442217       4.66060734      -0.09333118      -3.89921393      -2.48248402      -0.37451471       0.48224080      -2.73425422      -0.55283077       0.59865626       0.14596265
6
Lattice="3.6758713639218237 0.0 0.0 -1.8379356819609118 3.1833979822000495 0.0 0.0 0.0 6.941662841578979" Properties=species:S:1:pos:R:3:momenta:R:3:md_forces:R:3:REF_forces:R:3 config_type=supercell_bulk_MD buildcell_config_i=2 RSS_min_vol_per_atom=8.0 buildcell_type=narrow gap_rss_group=ALL gap_rss_iter=2 buildcell_symmetry="152 P3_121 P 31 2\" @ 0.01" minim_pressure_GPa=0.046730359646825564 minim_config_type=minim_last_unconverged minim_energy=-19.039408216381005 minim_stress="-0.0001242760557253436 -0.00012427605572534373 -0.0009737908115315812 0.0 0.0 -2.5115688247649736e-20" minim_n_steps=20 E_per_atom_dist_to_nearby=0.16284681720980032 primitive_cell="_JSON [[3.676577300805926, 0.0, 0.0], [-1.838288650402963, 3.1840093414751536, 0.0], [0.0, 0.0, 6.9429959610904435]]" orig_cell="_JSON [[3.676577300805926, 0.0, 0.0], [-1.838288650402963, 3.1840093414751536, 0.0], [0.0, 0.0, 6.9429959610904435]]" supercell_n="1 1 1" MD_pressure_GPa=0.046730359646825564 MD_temperature_K=1700.0 MD_time_fs=125.0 md_energy=-18.062327313275347 vasp_rundir=run_iter_2/run_VASP_urifay0v REF_energy=-8.76696907 REF_stress="0.7511323657057822 0.7364830745631612 0.828551066721445 -0.007014646153298807 0.027369071175252044 0.00897553843521919" pbc="T T T"
Li      -1.60829058       2.28624782       1.27250024       0.50238511       0.71553321      -1.22336555       2.44979143       1.23310657       0.52199008       0.97390461      -0.01780178       0.01698280
Li       2.87684540      -0.15262917       5.47256713      -0.58057344      -1.30790866       0.18222710      -4.57217711       0.79326586       3.80514464      -1.57503854       0.60002925       0.79416557
Li       0.82761809       0.65510722       3.73487563       2.02156464      -0.92533653       0.90330748       0.23597107       0.16579470      -1.77137368      -1.57670233       1.81916775       0.14034503
Cu       0.72962862       1.14806259      -0.10728581      -0.91166868       1.39428830      -1.13350123      -0.60012095      -0.60417520      -3.98391637      -0.16984324      -0.42770144      -0.38475419
Cu       2.22201797       0.13035738       2.43439943      -2.10387673       3.05117669      -1.98772498      -0.28550194      -1.54592734      -1.23739944       1.17174713      -0.66192843      -0.39348526
Cu      -1.14191357       1.94808103       4.60718299       1.07216911      -2.92775302       3.25905718       2.77203752      -0.04206459       2.66555476       1.17593238      -1.31176535      -0.17325393
6
Lattice="3.6657756567357516 0.0 0.0 -1.8328878283678758 3.1746548433077417 0.0 0.0 0.0 6.922597703413138" Properties=species:S:1:pos:R:3:momenta:R:3:md_forces:R:3:REF_forces:R:3 config_type=supercell_bulk_MD buildcell_config_i=2 RSS_min_vol_per_atom=8.0 buildcell_type=narrow gap_rss_group=ALL gap_rss_iter=2 buildcell_symmetry="152 P3_121 P 31 2\" @ 0.01" minim_pressure_GPa=0.046730359646825564 minim_config_type=minim_last_unconverged minim_energy=-19.039408216381005 minim_stress="-0.0001242760557253436 -0.00012427605572534373 -0.0009737908115315812 0.0 0.0 -2.5115688247649736e-20" minim_n_steps=20 E_per_atom_dist_to_nearby=0.2678931874559325 primitive_cell="_JSON [[3.676577300805926, 0.0, 0.0], [-1.838288650402963, 3.1840093414751536, 0.0], [0.0, 0.0, 6.9429959610904435]]" orig_cell="_JSON [[3.676577300805926, 0.0, 0.0], [-1.838288650402963, 3.1840093414751536, 0.0], [0.0, 0.0, 6.9429959610904435]]" supercell_n="1 1 1" MD_pressure_GPa=0.046730359646825564 MD_temperature_K=2500.0 MD_time_fs=200.0 md_energy=-17.432049091798554 vasp_rundir=run_iter_2/run_VASP_ph5ej9m9 REF_energy=-8.65019632 REF_stress="0.7001315571499819 0.756693541617556 0.8333334299269286 -0.014181525941038123 0.0016266275429101555 0.006705612346680924" pbc="T T T"
Li      -1.62662474       2.43820818       1.75635593      -1.55658096       0.14954273      -0.12300174      -1.22194957       0.84515766      -1.01722190       0.85929230      -0.40458541      -0.71610924
Li       2.47474321      -0.27073920       5.86885856      -1.88044403      -1.39389200       0.31068310       0.86972015       1.49914299       2.47356321      -0.11354263       0.34536370       0.19898224
Li       0.91656595       1.29167013       4.06705920       0.37339904      -0.36427831      -2.40266007       2.19040811      -4.29401282      -2.94267612      -0.35787460      -1.00911869      -0.75805153
Cu       0.46253226       0.66140530      -0.14297288       0.37015950      -3.97218311      -2.87507899       1.85672060       3.13354236       2.07840138       0.68425141       0.75060029       0.22986661
Cu       2.26704722       0.39426823       2.42076807      -0.08264101      -1.45509614       2.06110628      -2.27639582       0.46715341      -0.14228520      -0.41501489      -0.45625310       0.74078866
Cu      -0.88924300       2.08791216       4.50191173       2.77610746       7.03590682       3.02895143      -1.41850347      -1.65098359      -0.44978138      -0.65711159       0.77399321       0.30452326
6
Lattice="2.9980536871813874 1.7309271033391238 4.2704281320514115 -2.9980536871813874 1.7309271033391238 4.2704281320514115 0.0 -3.4618542066782476 4.2704281320514115" Properties=species:S:1:pos:R:3:momenta:R:3:md_forces:R:3:REF_forces:R:3 config_type=supercell_bulk_MD buildcell_config_i=22 RSS_min_vol_per_atom=10.0 buildcell_type=narrow_even gap_rss_group=ALL gap_rss_iter=2 buildcell_symmetry="148 R-3 -R 3 @ 0.01" minim_pressure_GPa=0.32397492719759236 minim_config_type=minim_last_unconverged minim_energy=-11.283258479137505 minim_stress="-0.02217125844385342 -0.005835835371123552 0.001048396535583196 -0.013988658114929081 -0.019359262369581656 -0.02470036322598617" minim_n_steps=20 E_per_atom_dist_to_nearby=0.39508991212288946 primitive_cell="_JSON [[3.002224536032764, 1.7333351440462155, 4.276369089795301], [-3.002224536032764, 1.7333351440462155, 4.276369089795301], [0.0, -3.466670288092431, 4.276369089795301]]" orig_cell="_JSON [[3.002224536032764, 1.7333351440462155, 4.276369089795301], [-3.002224536032764, 1.7333351440462155, 4.276369089795301], [0.0, -3.466670288092431, 4.276369089795301]]" supercell_n="1 1 1" MD_pressure_GPa=0.32397492719759236 MD_temperature_K=366.6666666666667 MD_time_fs=25.0 md_energy=-11.207043895662755 vasp_rundir=run_iter_2/run_VASP_4r8gzxwc REF_energy=-10.91987657 REF_stress="0.012525952082598258 0.0117302297424711 -0.008566960859250607 -0.00015338576085156667 -0.000655139250175732 -0.00041702482817804453" pbc="T T T"
Li      -0.95889537      -1.60956413       5.36926441      -0.18729689       0.05113441       0.08316224      -0.23434913      -0.14283626      -0.13519704       0.00719719      -0.18337233      -0.02379388
Li      -1.09320801       1.68087041       5.25233355      -0.47783796      -0.27684220      -0.15547583       0.16595693       0.10258520       0.21924662       0.09856959       0.06740411       0.20169691
Li       2.04435496      -0.09444407       5.33371441       0.18877501      -0.70583047       0.20383507       0.02361675       0.11622533       0.10860389      -0.08064604       0.14946340       0.00412691
Li      -1.94087802      -0.07150536       7.45810063       0.18191946       0.04207517      -0.18226333      -0.13086084       0.13047863      -0.01170274      -0.10409831       0.11720380       0.01621392
Li       0.95178386       1.69788346       7.58132783       0.11683108       0.40699221       0.39903871       0.19115329       0.03359633      -0.10169594       0.02884976       0.00542234      -0.34629030
Li       0.99684258      -1.60324032       7.43911236       0.17760931       0.48247088      -0.34829686      -0.01551700      -0.24004923      -0.07925479       0.05012782      -0.15612132       0.14804644
6
Lattice="2.992747610500357 1.727863638538991 4.262870155612775 -2.992747610500357 1.727863638538991 4.262870155612775 0.0 -3.455727277077982 4.262870155612775" Properties=species:S:1:pos:R:3:momenta:R:3:md_forces:R:3:REF_forces:R:3 config_type=supercell_bulk_MD buildcell_config_i=22 RSS_min_vol_per_atom=10.0 buildcell_type=narrow_even gap_rss_group=ALL gap_rss_iter=2 buildcell_symmetry="148 R-3 -R 3 @ 0.01" minim_pressure_GPa=0.32397492719759236 minim_config_type=minim_last_unconverged minim_energy=-11.283258479137505 minim_stress="-0.02217125844385342 -0.005835835371123552 0.001048396535583196 -0.013988658114929081 -0.019359262369581656 -0.02470036322598617" minim_n_steps=20 E_per_atom_dist_to_nearby=0.06525131194967715 primitive_cell="_JSON [[3.002224536032764, 1.7333351440462155, 4.276369089795301], [-3.002224536032764, 1.7333351440462155, 4.276369089795301], [0.0, -3.466670288092431, 4.276369089795301]]" orig_cell="_JSON [[3.002224536032764, 1.7333351440462155, 4.276369089795301], [-3.002224536032764, 1.7333351440462155, 4.276369089795301], [0.0, -3.466670288092431, 4.276369089795301]]" supercell_n="1 1 1" MD_pressure_GPa=0.32397492719759236 MD_temperature_K=633.3333333333334 MD_time_fs=50.0 md_energy=-10.89175060670713 vasp_rundir=run_iter_2/run_VASP_5pvqhyfq REF_energy=-10.46286033 REF_stress="0.009515182715865529 0.001836292997791321 -0.015397947398384607 0.0015715400582632195 -0.0009653832916546326 -0.005570804881389018" pbc="T T T"
Li      -1.09744229      -1.52885506       5.33602272      -0.29733355       0.65171892      -0.14441337       0.53354603       0.21755380       0.12844041       0.22644597      -0.48497834      -0.06143742
Li      -1.30323756       1.58854563       5.30188129      -0.85745602      -0.15509350       0.62492377       0.07611358       0.22278477       0.14707192       0.37314570       0.39094429       0.24037583
Li       2.22928042      -0.32733507       5.43794895       1.15836334      -0.49558893       0.18353647       0.20761863       0.46139101      -0.51348068      -0.24774837       0.43299645      -0.48937624
Li      -1.93957114      -0.08515942       7.35374728      -0.28557992      -0.28242161      -0.37549477      -0.15001495      -0.16452808      -0.01457243      -0.01236888       0.17158513       0.47902469
Li       1.04817590       1.80902535       7.70010499       0.25821841      -0.00437823       0.15630855      -0.25686355      -0.42552325      -0.40823178      -0.08947305      -0.12529567      -0.85799085
Li       1.06279467      -1.45622143       7.23612616       0.02378774       0.28576336      -0.44486065      -0.41039975      -0.31167824       0.66077255      -0.25000137      -0.38525186       0.68940398
6
Lattice="2.970179028798645 1.7148336618182782 4.230723464373864 -2.970179028798645 1.7148336618182782 4.230723464373864 0.0 -3.4296673236365565 4.230723464373864" Properties=species:S:1:pos:R:3:momenta:R:3:md_forces:R:3:REF_forces:R:3 config_type=supercell_bulk_MD buildcell_config_i=22 RSS_min_vol_per_atom=10.0 buildcell_type=narrow_even gap_rss_group=ALL gap_rss_iter=2 buildcell_symmetry="148 R-3 -R 3 @ 0.01" minim_pressure_GPa=0.32397492719759236 minim_config_type=minim_last_unconverged minim_energy=-11.283258479137505 minim_stress="-0.02217125844385342 -0.005835835371123552 0.001048396535583196 -0.013988658114929081 -0.019359262369581656 -0.02470036322598617" minim_n_steps=20 E_per_atom_dist_to_nearby=0.0 primitive_cell="_JSON [[3.002224536032764, 1.7333351440462155, 4.276369089795301], [-3.002224536032764, 1.7333351440462155, 4.276369089795301], [0.0, -3.466670288092431, 4.276369089795301]]" orig_cell="_JSON [[3.002224536032764, 1.7333351440462155, 4.276369089795301], [-3.002224536032764, 1.7333351440462155, 4.276369089795301], [0.0, -3.466670288092431, 4.276369089795301]]" supercell_n="1 1 1" MD_pressure_GPa=0.32397492719759236 MD_temperature_K=1166.6666666666667 MD_time_fs=100.0 md_energy=-10.934929760903168 vasp_rundir=run_iter_2/run_VASP_3rm4fumj REF_energy=-10.76825891 REF_stress="-0.0015812472215048317 0.0023426937650143998 -0.0025998300786090217 0.0012393534047504186 -0.0010096614811369992 0.007259033822496283" pbc="T T T"
Li      -0.43509723      -1.07415777       5.07566157       1.56572490       0.02443130      -0.71745697      -0.03967773      -0.08751394       0.00571088      -0.01507366      -0.07510094       0.27962008
Li      -1.68276609       1.70986464       5.45492754       0.08864643       0.62542341      -0.08556778       0.18464158      -0.16325650       0.23808195       0.32523088       0.15834542       0.54075481
Li       2.26644298      -0.07626109       5.11541290      -1.50593809      -0.05431745      -0.03825192       0.19220808      -0.35521429       0.39067203      -0.22906447      -0.26318070      -0.30052641
Li      -2.18149137      -0.74205125       7.25028749      -0.54942509      -1.05826827       0.33747274       0.06712411       0.27631515      -0.37383586       0.01811810       0.10767539      -0.09160722
Li       1.35180652       1.64508148       7.26890966       1.38276469       0.04818644      -1.00782761       0.09225597      -0.03080334      -0.13823991      -0.22680586      -0.01896169      -0.46502485
Li       0.68110519      -1.46247601       7.91131201      -0.98177284       0.41454457       1.51163155      -0.49655201       0.36047291      -0.12238910       0.12759501       0.09122253       0.03678358
7
Lattice="3.4057945732286243 1.9520362437093488 2.765310270318094 -3.3520983304318728 1.9654219205102625 2.6938071885246155 0.03844045755484365 -3.9640305505999165 2.760859226091661" Properties=species:S:1:pos:R:3:minim_forces:R:3:momenta:R:3:md_forces:R:3:REF_forces:R:3 config_type=supercell_vacancy_minim_last_unconverged_MD buildcell_config_i=50 RSS_min_vol_per_atom=7.0 buildcell_type=wide gap_rss_group=ALL gap_rss_iter=2 buildcell_symmetry="148 R-3 -R 3 @ 0.01" minim_pressure_GPa=0.22523662841918016 minim_config_type=minim_last_unconverged minim_n_steps=20 E_per_atom_dist_to_nearby=0.5255058889456254 primitive_cell="_JSON [[3.3524173710066476, 1.9355190715866653, 2.8798821628189346], [-3.3524173710066476, 1.9355190715866653, 2.8798821628189346], [0.0, -3.8710381431733305, 2.8798821628189346]]" orig_cell="_JSON [[3.3524173710066476, 1.9355190715866653, 2.8798821628189346], [-3.3524173710066476, 1.9355190715866653, 2.8798821628189346], [0.0, -3.8710381431733305, 2.8798821628189346]]" supercell_n="1 1 1" vacancy_Z=29 vacancy_pos="_JSON [[0.07827469728108366, -1.983991565851314, 3.039116333397912]]" minim_energy=-26.301299363010827 minim_stress="0.015011127316265124 0.20188230864990436 0.21423618401790745 -0.09248991245025853 0.02361328118259433 0.05046246938913809" MD_pressure_GPa=0.22523662841918016 MD_temperature_K=316.6666666666667 MD_time_fs=50.0 md_energy=-99.15249430467398 vasp_rundir=run_iter_2/run_VASP_qfqu9qd1 REF_energy=1403.84323299 REF_stress="1.3071890039652736 -3.765416525812034 -34.85947024572262 13.515644128078392 -0.9887325509275089 0.8316493776102416" pbc="T T T"
Li      -0.04936915      -0.35120438       2.60324429       0.10084104      -7.02446618       8.39269823      -2.03242504      -4.83860495      -0.71153185      -0.26884639      -2.01534853      -1.33162557       0.09104088      -0.60800985       0.11261049
Li      -0.12554244       0.10415795       6.98410382       0.14897805      -2.71984285      -5.76877017      -1.22020756      -0.71428413       0.62376207      -0.10896693       2.00947136      -0.05019489       2.74930561      -1.95511567      -2.31610585
Cu       0.04448111       1.06974913       5.35481213      -0.45922884      -7.44898499       1.66236139       0.68373321       4.31371975      -5.27098983       0.65576333      10.36582045      -0.40565295       0.20838699       1.54111427      -2.34223878
Cu       1.77763098      -1.68040304       5.15714525      -3.21510639      -9.77472542       1.80584754      -4.94450308       5.88348423      10.44487687      -4.55415793       4.83359435       0.01890125     263.20673067    1391.43700167   -5199.32836657
Cu      -1.66935986      -1.61830073       5.14222912       2.80434148     -13.56680951      -6.49219621       4.79375590       6.28055701      10.13755429       3.76052756       3.19928896       0.97559716    -488.55614354    1716.98848188   -3248.27478865
Cu      -1.63597989       2.09395459       2.85777222       4.61044233      20.65190746      -2.23179554      -6.60658342      -4.27004404      -8.54282651      -0.64968590      -8.21676246      -3.89495915     490.47179373   -1716.67746764    3249.32249456
Cu       1.71526689       2.15860338       2.86375254      -3.99026767      19.88292149       2.63185477       9.32623000      -6.65482787      -6.68084502       1.16536626     -10.17606414       4.68793415    -268.17111435   -1390.72600467    5202.82639479
7
Lattice="3.428349646739334 1.9649637177615193 2.7836236991188925 -3.374297797438 1.9784380419889729 2.7116470839893787 0.03869503173050012 -3.9902825744801285 2.779143177592059" Properties=species:S:1:pos:R:3:minim_forces:R:3:momenta:R:3:md_forces:R:3:REF_forces:R:3 config_type=supercell_vacancy_minim_last_unconverged_MD buildcell_config_i=50 RSS_min_vol_per_atom=7.0 buildcell_type=wide gap_rss_group=ALL gap_rss_iter=2 buildcell_symmetry="148 R-3 -R 3 @ 0.01" minim_pressure_GPa=0.22523662841918016 minim_config_type=minim_last_unconverged minim_n_steps=20 E_per_atom_dist_to_nearby=0.09395313950030904 primitive_cell="_JSON [[3.3524173710066476, 1.9355190715866653, 2.8798821628189346], [-3.3524173710066476, 1.9355190715866653, 2.8798821628189346], [0.0, -3.8710381431733305, 2.8798821628189346]]" orig_cell="_JSON [[3.3524173710066476, 1.9355190715866653, 2.8798821628189346], [-3.3524173710066476, 1.9355190715866653, 2.8798821628189346], [0.0, -3.8710381431733305, 2.8798821628189346]]" supercell_n="1 1 1" vacancy_Z=29 vacancy_pos="_JSON [[0.07827469728108366, -1.983991565851314, 3.039116333397912]]" minim_energy=-26.301299363010827 minim_stress="0.015011127316265124 0.20188230864990436 0.21423618401790745 -0.09248991245025853 0.02361328118259433 0.05046246938913809" MD_pressure_GPa=0.22523662841918016 MD_temperature_K=983.3333333333334 MD_time_fs=150.0 md_energy=-103.81388717545286 vasp_rundir=run_iter_2/run_VASP_534o40uc REF_energy=1000.66953206 REF_stress="1.127239370774371 -19.345385855582947 -9.852902560341743 15.552406458027127 -1.3038822038714397 2.012664858216361" pbc="T T T"
Li       0.11781359      -0.22344723       2.44697077       0.10084104      -7.02446618       8.39269823       1.51567106       0.71431762      -0.44020568      -1.91148952       0.16449428      -0.62209443      -0.17567920      -0.88017196       0.44073522
Li       0.16631476       0.22414693       6.69449562       0.14897805      -2.71984285      -5.76877017      -0.70620768      -0.57906191      -0.19715024      -1.43118456       1.38958049       1.61722304      -0.01226557      -2.61323254       1.18987582
Cu       0.06981422       1.21811255       5.32835192      -0.45922884      -7.44898499       1.66236139      -0.74739829       1.83815388       2.34653047       2.18271143       0.41239029       1.24035418      -0.31928873       2.78318683      -3.94620525
Cu       1.78437913      -1.54908447       5.25183983      -3.21510639      -9.77472542       1.80584754       2.05252622       3.83773627      -0.10177998      -3.02759970      -5.86749409       4.95786745     134.40016173    2037.07325884   -1656.54544813
Cu      -1.71851395      -1.59622900       5.31259528       2.80434148     -13.56680951      -6.49219621      -0.35800945      -1.70060188       0.65585821       4.89650044       0.78430773      -3.42998498    -652.32375419    3172.71414744   -2166.36922997
Cu      -1.66739799       1.95793574       2.83140241       4.61044233      20.65190746      -2.23179554       0.51665761      -4.37110844      -0.51475405      -1.89266512      -0.73464951       0.36553798     654.11657703   -3172.21659942    2167.63909717
Cu       1.71503524       1.97903437       2.84871364      -3.99026767      19.88292149       2.63185477      -2.27323947       0.26056446      -1.74849873       1.18372702       3.85137081      -4.12890323    -135.68575107   -2036.86058918    1657.59117514
9
Lattice="5.2523053269944135 8.071751138076153e-18 -7.156627907977484e-44 -2.6261526634972068 4.548629841609491 -6.33064325532311e-44 -1.487696750910254e-45 -1.6599045821281302e-45 5.338382974490028" Properties=species:S:1:pos:R:3:minim_forces:R:3:momenta:R:3:md_forces:R:3:REF_forces:R:3 config_type=supercell_interstitial_minim_last_unconverged_MD buildcell_config_i=34 RSS_min_vol_per_atom=10.0 buildcell_type=wide_even gap_rss_group=ALL gap_rss_iter=2 buildcell_symmetry="191 P6/mmm -P 6 2 @ 0.01" minim_pressure_GPa=0.039818767855282905 minim_config_type=minim_last_unconverged minim_n_steps=20 E_per_atom_dist_to_nearby=0.0 primitive_cell="_JSON [[2.815684775134276, 0.0, 0.0], [-1.407842387567138, 2.4384545443153574, 0.0], [0.0, 0.0, 2.962720500038449]]" orig_cell="_JSON [[2.815684775134276, 0.0, 0.0], [-1.407842387567138, 2.4384545443153574, 0.0], [0.0, 0.0, 2.962720500038449]]" supercell_n="2 2 2" interstitial=8 minim_energy=-18.79098133363125 minim_stress="0.07437986550214885 0.07437986550214902 0.05065150046083281 1.581683389658429e-31 -2.739555992376141e-31 1.2647449895332e-17" MD_pressure_GPa=0.039818767855282905 MD_temperature_K=316.6666666666667 MD_time_fs=50.0 md_energy=-69.2655111598053 vasp_rundir=run_iter_2/run_VASP_z4xc2umm REF_energy=218.46279612 REF_stress="-0.09366778798399003 -1.378006435325211 -0.5347717019876265 -0.5599100303760968 -0.18772490036698955 -0.4351135655080956" pbc="T T T"
Li       0.37023249       0.04442373      -1.40834732      -0.34875437      -0.20135343      -0.82550860       1.27133237       0.26573948      -1.85939394      -2.01121268       1.32575971       5.37629145      -4.71638376      -8.24221228     -20.07052778
Li       0.49964570       0.29777131       4.54322132      -0.34875437      -0.20135343       0.82550860       3.44429817       0.45448776       2.92154973      -4.73574590      -4.59811874      -5.22343633       3.59727719       6.59885408      20.02913215
Li      -1.36281006       2.21483251      -1.35116973      -0.00000000       0.00000000      -0.95732056      -0.56717296      -0.16832857       2.60922908       0.88014022       1.36145209       0.83532749    1007.14142359    2705.76456948    1007.26184861
Li      -1.38538656       2.15414433       3.96462391      -0.00000000       0.00000000       0.95732056      -0.88591765      -1.17384476      -2.88398310      -0.53742452      -2.93358551      -1.09861541   -1005.96485724   -2705.51573487   -1007.00158275
Li       2.79385671      -0.18610217      -1.85204538       0.34875437      -0.20135343      -0.82550860      -0.57593291      -0.71860296       1.88175964       1.15376558      -0.99554395       6.38868630      -3.82068365      13.88586243     -26.19870973
Li       2.83969786      -0.28594269       4.26625733       0.34875437      -0.20135343       0.82550860      -1.61515755       1.51466172      -3.25901653       0.22117385       2.88407023      -4.51279893      -6.24923012      32.87007605      47.95664203
Li       1.32431644       2.22834137      -1.78035469       0.00000000       0.40270686      -0.82550860       1.09021370      -1.23340372       1.39939217       1.35572364       0.43361524       6.54176647       1.97029295      -2.94906966     -11.83722806
Li       1.20713612       2.46064094       4.35495911      -0.00000000       0.40270686       0.82550860       1.52923354      -2.62861932      -1.67296770       4.40297186      -4.49004772      -6.91833891      -0.16210830       1.84178880      11.77382119
Li       0.27869295       3.95967521       3.94340862       0.00000000       0.00000000       0.00000000      -3.69089671       3.68791037       0.86343065      -0.72939205       7.01239865      -1.38888213       8.20426933     -44.25413403     -21.91339567
