8
Lattice="3.209128724164093 1.8527913327602992 2.883421604968213 -3.209128724164093 1.8527913327602992 2.883421604968213 0.0 -3.7055826655205983 2.883421604968213" Properties=species:S:1:pos:R:3:momenta:R:3:md_forces:R:3:REF_forces:R:3 config_type=supercell_bulk_MD buildcell_config_i=3 RSS_min_vol_per_atom=8.0 buildcell_type=narrow gap_rss_group=ALL gap_rss_iter=2 buildcell_symmetry="146 R3 R 3 @ 0.01" minim_pressure_GPa=0.4065600075391511 minim_config_type=minim_last_unconverged minim_energy=-35.536629003676715 minim_stress="0.7348425651882046 0.7372670951557059 0.7395819686968431 -0.07560732076465965 -0.07679189023897699 -0.07797645862615059" minim_n_steps=20 E_per_atom_dist_to_nearby=0.0 primitive_cell="_JSON [[3.209128724164093, 1.8527913327602992, 2.883421604968213], [-3.209128724164093, 1.8527913327602992, 2.883421604968213], [0.0, -3.7055826655205983, 2.883421604968213]]" orig_cell="_JSON [[3.209128724164093, 1.8527913327602992, 2.883421604968213], [-3.209128724164093, 1.8527913327602992, 2.883421604968213], [0.0, -3.7055826655205983, 2.883421604968213]]" supercell_n="1 1 1" MD_pressure_GPa=0.4065600075391511 MD_temperature_K=100.0 MD_time_fs=0.0 md_energy=-35.53662899048839 vasp_rundir=run_iter_2/run_VASP_xww57gv4 REF_energy=-12.06017883 REF_stress="0.7307391648090639 0.7307391445304006 0.884510884781474 -2.0659395206673585e-09 8.88790899525776e-09 -1.1028746625435717e-08" pbc="T T T"
Li       1.67089237      -0.00644223       3.75641060      -0.31826205       0.04234019       0.35523289       0.36433169      -1.40581625       0.90385584      -0.29444450       1.16779633      -1.05849901
Li      -0.82986705       1.45025636       3.75641060       0.24792921      -0.08535312      -0.30191856       1.03530674       1.01842862       0.90385589      -0.86412044      -0.83889695      -1.05849783
Li      -0.84102532      -1.44381412       3.75641060       0.13271279       0.62376308      -0.23406775      -1.39963843       0.38738764       0.90385585       1.15856282      -0.32890107      -1.05849935
Li       0.00000000      -0.00000000       5.77975286       0.13380430       0.26298303      -0.02105565      -0.00000003       0.00000000      -0.16472593      -0.00000061      -0.00000145      -1.32270622
Cu       1.42878071      -1.97697338       4.27245236      -0.62785749       0.40158832       0.41990107      -0.65195554      -0.05936888      -1.01011494       0.45489810      -0.15305677       1.61518615
Cu       0.99771882       2.22584708       4.27245236       0.20066451       0.04719747      -0.10802170       0.37739260      -0.53492569      -1.01011496      -0.09485479       0.47049183       1.61517562
Cu      -2.42649952      -0.24887370       4.27245236       0.27873408      -1.18348057       1.00973723       0.27456286       0.59429461      -1.01011497      -0.36004108      -0.31743188       1.61523706
Cu       0.00000000      -0.00000000       1.19457497      -0.04772535      -0.10903842      -1.11980753       0.00000012      -0.00000005       0.48350322       0.00000050      -0.00000004      -0.34739641
8
Lattice="2.984792989385882 1.7232710358972476 2.6818545878662734 -2.984792989385882 1.7232710358972476 2.6818545878662734 0.0 -3.4465420717944952 2.6818545878662734" Properties=species:S:1:pos:R:3:momenta:R:3:md_forces:R:3:REF_forces:R:3 config_type=supercell_bulk_MD buildcell_config_i=3 RSS_min_vol_per_atom=8.0 buildcell_type=narrow gap_rss_group=ALL gap_rss_iter=2 buildcell_symmetry="146 R3 R 3 @ 0.01" minim_pressure_GPa=0.4065600075391511 minim_config_type=minim_last_unconverged minim_energy=-35.536629003676715 minim_stress="0.7348425651882046 0.7372670951557059 0.7395819686968431 -0.07560732076465965 -0.07679189023897699 -0.07797645862615059" minim_n_steps=20 E_per_atom_dist_to_nearby=0.0 primitive_cell="_JSON [[3.209128724164093, 1.8527913327602992, 2.883421604968213], [-3.209128724164093, 1.8527913327602992, 2.883421604968213], [0.0, -3.7055826655205983, 2.883421604968213]]" orig_cell="_JSON [[3.209128724164093, 1.8527913327602992, 2.883421604968213], [-3.209128724164093, 1.8527913327602992, 2.883421604968213], [0.0, -3.7055826655205983, 2.883421604968213]]" supercell_n="1 1 1" MD_pressure_GPa=0.4065600075391511 MD_temperature_K=633.3333333333334 MD_time_fs=50.0 md_energy=-73.04035617260293 vasp_rundir=run_iter_2/run_VASP_88v5bwjg REF_energy=22.82471577 REF_stress="0.6382621506731202 0.4042318932644358 0.6731492829682415 0.12919422508277809 0.06698309946403633 -0.16698565348332914" pbc="T T T"
Li       0.81191463      -1.79075912       5.04694467      -0.25789956      -1.98861788       1.55914935       6.29815515       4.98972937      -2.33933995      -4.54850864      -2.53086829      -2.92246617
Li       0.93863104       1.20449736       4.23907289       0.28832699       1.71003837       2.32498254      -3.84915734       6.36220340       1.76386663       3.10485348     -23.12025981      12.99758417
Li      -1.72472431       0.49130240       3.76610989      -2.84060955       0.01507867       0.36964107      -5.89667958      -5.13366274       0.47450329      14.25345628      17.71504891      -1.20927523
Li      -0.14772874       0.31285940       6.46526820       0.40497787       2.75905867       2.26928828       1.41410735       3.84478153       0.04962781      -0.18829139      -4.06594823      -2.19758069
Cu       1.34864341      -1.68740414       4.05890960       1.27929883      -3.36456234      10.07401428      -0.30346386      -4.77475713      15.95155527      -2.37650096       0.70959712      -6.03466884
Cu       0.82313586       1.95181416       3.79420794       6.66501016      -0.34959921      -9.47533459       6.41670038      -4.97503004     -12.06500933      -4.89546279      22.78422654      -3.08616315
Cu      -2.16736453      -0.27952682       3.84264019      -6.23345546       1.68414448      -4.02257581      -7.37715292       1.84852091      -2.16360048      -4.15877789     -14.64881291       4.07235759
Cu       0.00889904      -0.00868054       0.93692154       0.69435070      -0.46554076      -3.09916511       3.29749082      -2.16178529      -1.67160323      -1.19076808       3.15701667      -1.61978767
8
Lattice="2.8599213180607 1.6511763428434958 2.569656634497697 -2.8599213180607 1.6511763428434958 2.569656634497697 0.0 -3.3023526856869916 2.569656634497697" Properties=species:S:1:pos:R:3:momenta:R:3:md_forces:R:3:REF_forces:R:3 config_type=supercell_bulk_MD buildcell_config_i=3 RSS_min_vol_per_atom=8.0 buildcell_type=narrow gap_rss_group=ALL gap_rss_iter=2 buildcell_symmetry="146 R3 R 3 @ 0.01" minim_pressure_GPa=0.4065600075391511 minim_config_type=minim_last_unconverged minim_energy=-35.536629003676715 minim_stress="0.7348425651882046 0.7372670951557059 0.7395819686968431 -0.07560732076465965 -0.07679189023897699 -0.07797645862615059" minim_n_steps=20 E_per_atom_dist_to_nearby=0.0 primitive_cell="_JSON [[3.209128724164093, 1.8527913327602992, 2.883421604968213], [-3.209128724164093, 1.8527913327602992, 2.883421604968213], [0.0, -3.7055826655205983, 2.883421604968213]]" orig_cell="_JSON [[3.209128724164093, 1.8527913327602992, 2.883421604968213], [-3.209128724164093, 1.8527913327602992, 2.883421604968213], [0.0, -3.7055826655205983, 2.883421604968213]]" supercell_n="1 1 1" MD_pressure_GPa=0.4065600075391511 MD_temperature_K=900.0 MD_time_fs=75.0 md_energy=-176.46882378548156 vasp_rundir=run_iter_2/run_VASP_ifc5r1g0 REF_energy=191.03358274 REF_stress="-0.803960922895524 -0.9687533937394477 -5.3230791463063145 -0.33403743259140184 0.6925774985256857 -0.026238356130180777" pbc="T T T"
Li       1.62234669      -1.63016303       5.15878576       1.78038902      -0.35586464      -0.02792491       5.85913442       0.11549636       2.82912144     270.32166340      55.69857504     154.20597641
Li       0.60131440       2.28468551       3.96084463      -0.51117535      -0.14607909      -3.43098988       1.46501060      -4.50933474      -3.90882375      -2.40355994       0.30090106       5.33353886
Li      -2.85280960       1.09588201       3.65743796       0.36543088      -3.94258182       1.23938806       5.94006033      -9.83620063      -1.63731490     -49.17806306    -172.34802297     150.28301565
Li       0.44415204       0.85757987       6.61253283       1.43877398       1.82822957       1.55126626      -1.11701298       3.63045315       2.59929799       1.01778030     -45.51541405      37.41254695
Cu       1.27067007      -1.75999690       4.75527591      -9.15974465       3.30058260      65.33860007     -29.99936081      25.22481085     102.51145657     -77.90362149    -188.85542881    -642.60582961
Cu       1.04726413       1.76835429       2.99420490      14.87273222      -8.08118310     -53.15837239      25.78861471     -24.46260765     -99.65921574    -207.76003267     131.51790563     473.91541050
Cu      -2.42193944      -0.18601817       3.55660624     -10.00416015       8.62639951      -2.20457409      -5.33636855      12.32422335       3.01923530       5.56240866      25.27149301     -36.57775338
Cu       0.12420912      -0.10716299       0.72287377       1.21775406      -1.22950303      -9.30739313      -2.60007773      -2.48684068      -5.75375691      60.34342481     193.92999109    -141.96690538
8
Lattice="2.720488572076662 1.5706748094157623 2.4443754673126237 -2.720488572076662 1.5706748094157623 2.4443754673126237 0.0 -3.1413496188315246 2.4443754673126237" Properties=species:S:1:pos:R:3:momenta:R:3:md_forces:R:3 config_type=supercell_bulk_MD buildcell_config_i=3 RSS_min_vol_per_atom=8.0 buildcell_type=narrow gap_rss_group=ALL gap_rss_iter=2 buildcell_symmetry="146 R3 R 3 @ 0.01" minim_pressure_GPa=0.4065600075391511 minim_config_type=minim_last_unconverged minim_energy=-35.536629003676715 minim_stress="0.7348425651882046 0.7372670951557059 0.7395819686968431 -0.07560732076465965 -0.07679189023897699 -0.07797645862615059" minim_n_steps=20 E_per_atom_dist_to_nearby=0.0 primitive_cell="_JSON [[3.209128724164093, 1.8527913327602992, 2.883421604968213], [-3.209128724164093, 1.8527913327602992, 2.883421604968213], [0.0, -3.7055826655205983, 2.883421604968213]]" orig_cell="_JSON [[3.209128724164093, 1.8527913327602992, 2.883421604968213], [-3.209128724164093, 1.8527913327602992, 2.883421604968213], [0.0, -3.7055826655205983, 2.883421604968213]]" supercell_n="1 1 1" MD_pressure_GPa=0.4065600075391511 MD_temperature_K=1166.6666666666667 MD_time_fs=100.0 md_energy=-377.6212874834343 vasp_rundir=run_iter_2/run_VASP_l79d6wqm DFT_FAILED_VASP=T pbc="T T T"
Li       1.92755077      -2.31301389       5.70736896      -1.19746574      -1.17373470       3.09569504     -10.22521538      14.33217757     -12.65542875
Li       1.01656241       1.86901233       1.96662924       2.10696597      -0.69153890       0.32695033       8.84693997      -6.85839031      15.55616644
Li      -2.10706453       0.76736748       2.66520268      -2.46045112       1.57251270       0.09846082     -15.76435956       5.80893630       2.70627517
Li      -0.12639479       1.30101627       6.37313009      -4.40164728       4.50742034      -3.35862220       0.89701786       1.65591822      -3.07003560
Cu       1.57661081      -1.58179193       5.17705719      55.59544553       2.30138094      14.72333988     145.41273391     -34.18670298      62.58871662
Cu       1.42983514       1.35406451       2.64259747      24.85093797     -36.04063691      11.79206755      88.57224552     -76.93808552      32.38095550
Cu      -2.87294983       1.18046304       3.21037120     -45.48262055      43.21745352     -23.01896261    -169.17998748     -47.12737772    -102.87316578
Cu      -0.21110820      -1.13013802       0.60162437     -29.01116478     -13.69285698      -3.65892882     -48.55937484     143.31352443       5.36651639
8
Lattice="2.53512062633538 1.463652576042905 2.2778212447928614 -2.53512062633538 1.463652576042905 2.2778212447928614 0.0 -2.92730515208581 2.2778212447928614" Properties=species:S:1:pos:R:3:momenta:R:3:md_forces:R:3 config_type=supercell_bulk_MD buildcell_config_i=3 RSS_min_vol_per_atom=8.0 buildcell_type=narrow gap_rss_group=ALL gap_rss_iter=2 buildcell_symmetry="146 R3 R 3 @ 0.01" minim_pressure_GPa=0.4065600075391511 minim_config_type=minim_last_unconverged minim_energy=-35.536629003676715 minim_stress="0.7348425651882046 0.7372670951557059 0.7395819686968431 -0.07560732076465965 -0.07679189023897699 -0.07797645862615059" minim_n_steps=20 E_per_atom_dist_to_nearby=0.0 primitive_cell="_JSON [[3.209128724164093, 1.8527913327602992, 2.883421604968213], [-3.209128724164093, 1.8527913327602992, 2.883421604968213], [0.0, -3.7055826655205983, 2.883421604968213]]" orig_cell="_JSON [[3.209128724164093, 1.8527913327602992, 2.883421604968213], [-3.209128724164093, 1.8527913327602992, 2.883421604968213], [0.0, -3.7055826655205983, 2.883421604968213]]" supercell_n="1 1 1" MD_pressure_GPa=0.4065600075391511 MD_temperature_K=1700.0 MD_time_fs=125.0 md_energy=-679.7963679860954 vasp_rundir=run_iter_2/run_VASP_bv54j7r6 DFT_FAILED_VASP=T pbc="T T T"
Li       1.59621725      -1.51863970       5.40607592       5.52755172      -0.96953960       1.83858894      -3.35464018       5.56248965      14.76448406
Li       2.60093807       1.00397308       3.25358015      -6.13313992      -5.27011715      -1.09608627       4.78478303       1.39083159      -0.06245623
Li      -3.23564006       1.32569502       2.15987931       0.02748947      -1.17887138       0.96566902       1.51512090      10.11849304     -13.08160191
Li      -0.80662572       1.73353720       4.63872694       4.17017115       2.90859878       2.60974567      -2.10948713       4.16981056      -0.04534525
Cu       1.39166010      -1.70319580       5.02657032      13.32127762     -10.84500489      -2.75678688     200.73584281     -93.68233700       2.53539727
Cu       1.82848477       1.10696674       2.52732023     -13.73030372       8.16761925     -12.95382674      22.54258877     -37.41877267      33.41477044
Cu      -2.91741277       0.67418755       2.75426101      -6.91951111      18.69071178      10.26611496    -117.23900615      95.45081129     -16.93759869
Cu      -0.31964792      -0.35585616       0.54353954       3.73646479     -11.50339677       1.12658130    -106.87520205      14.40867354     -20.58764969
8
Lattice="2.2969440046846192 1.326141239418163 2.063818106964532 -2.2969440046846192 1.326141239418163 2.063818106964532 0.0 -2.652282478836326 2.063818106964532" Properties=species:S:1:pos:R:3:momenta:R:3:md_forces:R:3 config_type=supercell_bulk_MD buildcell_config_i=3 RSS_min_vol_per_atom=8.0 buildcell_type=narrow gap_rss_group=ALL gap_rss_iter=2 buildcell_symmetry="146 R3 R 3 @ 0.01" minim_pressure_GPa=0.4065600075391511 minim_config_type=minim_last_unconverged minim_energy=-35.536629003676715 minim_stress="0.7348425651882046 0.7372670951557059 0.7395819686968431 -0.07560732076465965 -0.07679189023897699 -0.07797645862615059" minim_n_steps=20 E_per_atom_dist_to_nearby=0.0 primitive_cell="_JSON [[3.209128724164093, 1.8527913327602992, 2.883421604968213], [-3.209128724164093, 1.8527913327602992, 2.883421604968213], [0.0, -3.7055826655205983, 2.883421604968213]]" orig_cell="_JSON [[3.209128724164093, 1.8527913327602992, 2.883421604968213], [-3.209128724164093, 1.8527913327602992, 2.883421604968213], [0.0, -3.7055826655205983, 2.883421604968213]]" supercell_n="1 1 1" MD_pressure_GPa=0.4065600075391511 MD_temperature_K=1966.6666666666667 MD_time_fs=150.0 md_energy=-756.7638913699238 vasp_rundir=run_iter_2/run_VASP_3o8cskt0 DFT_FAILED_VASP=T pbc="T T T"
Li       0.97105404      -1.38790271       5.15370563       1.41198020      -0.50307513       0.94274216      11.83717088       0.42685393      -5.86950892
Li       1.99147729       0.22844655       2.89484957      -2.02300683      -0.34798942       0.34790919      -3.37924305       4.04847219      -1.14604565
Li      -2.40632693       1.60461557       2.16758880       1.94979095      -3.05440994       0.81780788      -4.36966667     -10.17607255       2.99298720
Li      -1.14373625       2.06883162       3.73865270       1.00490667       2.30387417       1.65614231       8.45814425      -2.12234325       9.75332354
Cu       1.96039623      -1.81658181       4.69258602      -0.64530592       4.86390764       1.94240602     -21.89261924      24.87052344      -0.87675078
Cu       1.81160152       0.66062386       2.28064918       7.64491730     -23.11403852     -11.68817754     -22.43974256      45.21636957       3.67248783
Cu      -3.10640214       0.98323100       2.48529032      -4.45360332       6.55895555       6.51448161      -3.40904710     -40.25826263       2.36629836
Cu      -0.60142995      -0.10183160       0.37922662      -4.88967905      13.29277565      -0.53331162      35.19500350     -22.00554070     -10.89279158
8
Lattice="1.300600818282464 0.7509022325436289 1.1685977164570838 -1.300600818282464 0.7509022325436289 1.1685977164570838 0.0 -1.5018044650872577 1.1685977164570838" Properties=species:S:1:pos:R:3:momenta:R:3:md_forces:R:3 config_type=supercell_bulk_MD buildcell_config_i=3 RSS_min_vol_per_atom=8.0 buildcell_type=narrow gap_rss_group=ALL gap_rss_iter=2 buildcell_symmetry="146 R3 R 3 @ 0.01" minim_pressure_GPa=0.4065600075391511 minim_config_type=minim_last_unconverged minim_energy=-35.536629003676715 minim_stress="0.7348425651882046 0.7372670951557059 0.7395819686968431 -0.07560732076465965 -0.07679189023897699 -0.07797645862615059" minim_n_steps=20 E_per_atom_dist_to_nearby=0.0 primitive_cell="_JSON [[3.209128724164093, 1.8527913327602992, 2.883421604968213], [-3.209128724164093, 1.8527913327602992, 2.883421604968213], [0.0, -3.7055826655205983, 2.883421604968213]]" orig_cell="_JSON [[3.209128724164093, 1.8527913327602992, 2.883421604968213], [-3.209128724164093, 1.8527913327602992, 2.883421604968213], [0.0, -3.7055826655205983, 2.883421604968213]]" supercell_n="1 1 1" MD_pressure_GPa=0.4065600075391511 MD_temperature_K=2233.3333333333335 MD_time_fs=175.0 md_energy=-1675.223430423022 vasp_rundir=run_iter_2/run_VASP_122ts7o8 DFT_FAILED_VASP=T pbc="T T T"
Li       0.88489159      -0.17272387       2.78029069      -1.25475589       7.26757811       0.36998328      -5.40515389      12.42180782       3.30681657
Li       0.96183754      -0.09663134       1.96248493      -0.46954388      -6.25799711       4.79203075      -0.11504832      -9.06020492       7.54242555
Li      -1.00767783       0.13644426       1.06287950       6.22537921      -6.02333691      -4.17587043      14.58165292      -8.13648779      -9.07803955
Li      -0.87655922       1.07696644       2.03847842      -6.40344025      -3.63960438      -3.81260528     -12.79360835      -5.45683979     -12.71569899
Cu       1.12064121      -0.92947682       2.74234110      16.63113066       4.90190310       7.15252967      87.19091823       5.23091427      80.26094097
Cu       1.03738911       0.32177394       1.20675945      11.42451165     -18.34488611     -11.29847474      33.17662737     -52.95439199     -52.78508133
Cu      -1.81382745       0.49285074       1.49967173     -21.74307954       1.94943120      10.87053183    -107.35777455     -29.28546649      48.66320290
Cu      -0.34010655       0.01174975       0.12794780      -4.41020196      20.14691210      -3.89812508      -9.27761341      87.24066890     -65.19456611
8
Lattice="-13.626028499196098 -7.8669912219963845 -12.243069175957936 13.626028499196098 -7.8669912219963845 -12.243069175957936 -0.0 15.733982443992769 -12.243069175957936" Properties=species:S:1:pos:R:3:momenta:R:3:md_forces:R:3 config_type=supercell_bulk_MD buildcell_config_i=3 RSS_min_vol_per_atom=8.0 buildcell_type=narrow gap_rss_group=ALL gap_rss_iter=2 buildcell_symmetry="146 R3 R 3 @ 0.01" minim_pressure_GPa=0.4065600075391511 minim_config_type=minim_last_unconverged minim_energy=-35.536629003676715 minim_stress="0.7348425651882046 0.7372670951557059 0.7395819686968431 -0.07560732076465965 -0.07679189023897699 -0.07797645862615059" minim_n_steps=20 E_per_atom_dist_to_nearby=0.0 primitive_cell="_JSON [[3.209128724164093, 1.8527913327602992, 2.883421604968213], [-3.209128724164093, 1.8527913327602992, 2.883421604968213], [0.0, -3.7055826655205983, 2.883421604968213]]" orig_cell="_JSON [[3.209128724164093, 1.8527913327602992, 2.883421604968213], [-3.209128724164093, 1.8527913327602992, 2.883421604968213], [0.0, -3.7055826655205983, 2.883421604968213]]" supercell_n="1 1 1" MD_pressure_GPa=0.4065600075391511 MD_temperature_K=2500.0 MD_time_fs=200.0 md_energy=30.604159838609576 vasp_rundir=run_iter_2/run_VASP_n76yjce1 DFT_FAILED_VASP=T pbc="T T T"
Li      -9.18863044       1.39550141     -29.12098226      -0.48737320       3.11980300       0.25748576       0.00000000       0.00000000       0.00000000
Li     -10.05144662       1.50649288     -20.96393612      -0.20044113      -2.15937609       1.66620328       0.00000000       0.00000000       0.00000000
Li      10.14821341      -1.04356660     -10.80017882       2.42901240      -2.30453434      -1.38330266       0.00000000       0.00000000       0.00000000
Li       9.62493142     -11.02869171     -21.07623430      -2.34720934      -1.27112495      -1.49799063       0.00000000       0.00000000       0.00000000
Cu     -11.85754973       9.66579665     -28.83657925       2.77320834      -0.62060702      -2.22742208      -7.84432686      -1.54071052      -8.21914555
Cu     -10.96634987      -3.16007450     -12.49161117       1.37511187       7.21577053       2.86150383      -4.54326367      20.82951360       9.94920629
Cu      19.16606773      -5.17342892     -15.81016927      -4.04022405       1.48036789       2.07777111       9.35096902       2.80604021      -4.01002142
Cu       3.59961431      -0.33078831      -1.31133222       0.49791511      -5.46029903      -1.75424863       3.03662151     -22.09484330       2.27996068
8
Lattice="4.878927934867495 0.0 0.0 1.0607446204695041 3.7004454512116114 0.0 0.3728036519160315 1.2742146387926232 5.273526530938509" Properties=species:S:1:pos:R:3:momenta:R:3:md_forces:R:3:REF_forces:R:3 config_type=supercell_bulk_MD buildcell_config_i=42 RSS_min_vol_per_atom=7.0 buildcell_type=narrow gap_rss_group=ALL gap_rss_iter=2 buildcell_symmetry="1 P1 P 1 @ 0.01" minim_pressure_GPa=0.04890342592771427 minim_config_type=minim_last_unconverged minim_energy=-22.53823595132764 minim_stress="0.8786583891994129 1.0096252262133814 0.5626264178037635 -0.04243312831977653 0.14723357844273494 -0.16989747202609362" minim_n_steps=20 E_per_atom_dist_to_nearby=0.10120713668679926 primitive_cell="_JSON [[2.477638637157113, 0.0, 0.0], [1.07734399479429, 3.7583529607363135, 0.0], [0.3786375795630674, 1.2941545615141539, 5.356050862629203]]" orig_cell="_JSON [[2.477638637157113, 0.0, 0.0], [1.07734399479429, 3.7583529607363135, 0.0], [0.3786375795630674, 1.2941545615141539, 5.356050862629203]]" supercell_n="2 1 1" MD_pressure_GPa=0.04890342592771427 MD_temperature_K=1166.6666666666667 MD_time_fs=100.0 md_energy=-84.36855720568931 vasp_rundir=run_iter_2/run_VASP_xbrrrqnp REF_energy=14.42568672 REF_stress="0.3756911699531898 1.4025524253299602 1.0965075336093684 0.17494667463693403 -0.07202627534433687 0.02047649981536917" pbc="T T T"
Li       1.12487398       1.28118555       0.77010398      -1.00808505       1.19279270      -0.37970673       1.35789686      -1.64974605       0.64827746      13.00110241       2.23484934       3.35130225
Cu       1.86569309       3.08416746       4.24048344       0.93528006       2.21412601      -0.68888112       0.51859299       3.66099187       0.10079142       0.84945674       0.68897633      -3.43711261
Cu       0.24190562       1.19060871       0.70067129      -1.58107459      -0.23316908       3.94258872      -0.33048071      -3.15219336      -3.98203601     -13.56368886      -1.49521578      -1.80109673
Cu       3.19120840       3.99138112       2.57924564       3.64924556      -2.93635295      -0.93385065      -0.40057131       4.48221676       1.30685334      -1.93525006      -0.30653485       0.50328349
Li       3.49433223       1.09243452       0.90167625      -1.31444682       0.65952197      -0.37006623       1.25030177       0.27591446      -0.78027360      38.77044946      -6.39173287      11.00163962
Cu       4.36034017       3.11312040       4.21433573       0.91923054       4.09477839      -5.50889432       1.60952884       2.37452373      -1.12448981      -0.07390362       0.05264015      -1.47040686
Cu       2.71917166       1.20663840       0.70761017      -6.11409896      -1.26495079       2.06038366      -5.08096423      -5.56970579      -1.78143872     -37.34486454       6.45209749     -10.77699560
Cu       5.55404638       4.03279513       2.47667672       4.51394925      -3.72674625       1.87842667       1.07569580      -0.42200163       5.61231592       0.29669847      -1.23507980       2.62938643
8
Lattice="4.867552613108639 0.0 0.0 1.0582714723675237 3.691817785826802 0.0 0.3719344524627837 1.2712437809116275 5.261231194361679" Properties=species:S:1:pos:R:3:momenta:R:3:md_forces:R:3:REF_forces:R:3 config_type=supercell_bulk_MD buildcell_config_i=42 RSS_min_vol_per_atom=7.0 buildcell_type=narrow gap_rss_group=ALL gap_rss_iter=2 buildcell_symmetry="1 P1 P 1 @ 0.01" minim_pressure_GPa=0.04890342592771427 minim_config_type=minim_last_unconverged minim_energy=-22.53823595132764 minim_stress="0.8786583891994129 1.0096252262133814 0.5626264178037635 -0.04243312831977653 0.14723357844273494 -0.16989747202609362" minim_n_steps=20 E_per_atom_dist_to_nearby=0.009869460153609566 primitive_cell="_JSON [[2.477638637157113, 0.0, 0.0], [1.07734399479429, 3.7583529607363135, 0.0], [0.3786375795630674, 1.2941545615141539, 5.356050862629203]]" orig_cell="_JSON [[2.477638637157113, 0.0, 0.0], [1.07734399479429, 3.7583529607363135, 0.0], [0.3786375795630674, 1.2941545615141539, 5.356050862629203]]" supercell_n="2 1 1" MD_pressure_GPa=0.04890342592771427 MD_temperature_K=1700.0 MD_time_fs=125.0 md_energy=-85.17390671948151 vasp_rundir=run_iter_2/run_VASP_lzgp5ccm REF_energy=12.40955768 REF_stress="0.7057205739872946 1.404019246359234 1.0733468495697576 0.18192358585563503 -0.035288649962804404 0.011261709293317884" pbc="T T T"
Li       1.12912583       1.01055381       0.78753824      -1.14704009      -1.26992419       0.53965403      -1.28409116       1.99307319       0.33222663      -6.15661740      -1.67750504       2.63898322
Cu       1.93269617       3.16184963       4.24291855       3.18837129      -1.19181566      -0.30405785       1.01320598      -3.37905778      -3.01505458       0.44180754       1.28737111      -2.66730281
Cu       0.13964964       1.09730444       0.62706695      -4.25253524      -3.23533168      -2.70166204      -1.22497433      -0.14765994       4.68164241      -0.03144745      -0.05547951      -1.49077788
Cu       3.25598253       4.06900055       2.58342029       0.92673599       4.65582559      -0.17537485      -0.61445501      -1.55727009      -0.27788265      -0.99464713      -0.25256768       2.08654192
Li       3.43262440       1.09360387       0.89097601      -0.36360372      -1.10118367       0.56289240      -0.79294048      -0.29126693      -1.00980815       0.85834278       0.31466451       2.55560813
Cu       4.42471495       3.14577663       4.16753558       0.41580655      -2.40466129       3.12608497      -2.86163690       0.64001955      -0.34755662      -1.54320978      -0.35779080       0.07324684
Cu       2.43384262       1.08830152       0.64438056      -2.09191259      -2.63996464       0.12367682       7.57589110       0.14706195       6.76086539       8.07610312       0.28254291      -3.13724187
Cu       5.70876844       4.04655576       2.61775593       3.32417781       7.18705554      -1.17121349      -1.81099921       2.59510004      -7.12443243      -0.65033168       0.45876450      -0.05905755
8
Lattice="4.8443033774253506 0.0 0.0 1.053216775513972 3.6741842955238306 0.0 0.37015795564161846 1.2651718493635766 5.236101603837566" Properties=species:S:1:pos:R:3:momenta:R:3:md_forces:R:3:REF_forces:R:3 config_type=supercell_bulk_MD buildcell_config_i=42 RSS_min_vol_per_atom=7.0 buildcell_type=narrow gap_rss_group=ALL gap_rss_iter=2 buildcell_symmetry="1 P1 P 1 @ 0.01" minim_pressure_GPa=0.04890342592771427 minim_config_type=minim_last_unconverged minim_energy=-22.53823595132764 minim_stress="0.8786583891994129 1.0096252262133814 0.5626264178037635 -0.04243312831977653 0.14723357844273494 -0.16989747202609362" minim_n_steps=20 E_per_atom_dist_to_nearby=0.04881398851680707 primitive_cell="_JSON [[2.477638637157113, 0.0, 0.0], [1.07734399479429, 3.7583529607363135, 0.0], [0.3786375795630674, 1.2941545615141539, 5.356050862629203]]" orig_cell="_JSON [[2.477638637157113, 0.0, 0.0], [1.07734399479429, 3.7583529607363135, 0.0], [0.3786375795630674, 1.2941545615141539, 5.356050862629203]]" supercell_n="2 1 1" MD_pressure_GPa=0.04890342592771427 MD_temperature_K=2233.3333333333335 MD_time_fs=175.0 md_energy=-85.25286240071038 vasp_rundir=run_iter_2/run_VASP_5fdluhin REF_energy=17.74350085 REF_stress="0.2505778461737494 1.4149331505586777 1.0454414721728038 0.17502153964148023 -0.15785578961557648 0.01260058183842399" pbc="T T T"
Li       0.98375155       1.11519976       0.90279301       0.61794934       1.08257490      -0.09128213       4.63819975      -2.13384143       0.14807960      66.33665761      -2.24816227      21.88253805
Cu       1.84446800       3.07874156       4.27956483      -3.04488093      -2.05975822       2.39761616       1.95192052       3.08058257      -7.70929756       1.49666626       1.21453349      -3.31506563
Cu       0.26224382       1.14053368       0.67768920       1.72241220      -5.67730850       5.10547383      -7.89712250      -2.45351087       4.61274854     -57.48541821       0.59760747     -20.82082818
Cu       3.06636183       4.01903957       2.43574737      -2.39611838       3.85937919      -5.76181095      -0.76012184       0.01709433       5.31109780      -0.05462289      -1.24354867       2.69814562