8
Lattice="4.050395651154329 2.338497019518441 4.245309367433064 -4.050395651154329 2.338497019518441 4.245309367433064 0.0 -2.338497019518441 2.122654683716532" Properties=species:S:1:pos:R:3:momenta:R:3:md_forces:R:3:REF_forces:R:3 config_type=supercell_bulk_MD buildcell_config_i=2 RSS_min_vol_per_atom=8.0 buildcell_type=narrow gap_rss_group=ALL gap_rss_iter=2 buildcell_symmetry="160 R3m R 3 -2\" @ 0.01" optimize_pressure_GPa=0.39451944363800906 optimize_config_type=optimize_last_converged optimize_energy=-11.84267179366303 optimize_stress="-0.002458237876328812 -0.0024582378763310375 -0.0024481211929734356 -1.2735746942420825e-14 -2.8606406600320355e-16 -1.00939497534938e-15" optimize_virial="_JSON [[0.14828945888301703, 9.449109675287587e-11, 1.171071814840829e-10], [9.451800067930454e-11, 0.1482894574392013, 2.2838735865422386e-09], [1.1711011338861765e-10, 2.283862955268844e-09, 0.1476791846364165]]" optimize_n_steps=10 E_per_atom_dist_to_nearby=0.020212196961434614 primitive_cell="_JSON [[2.02527787937598, 1.1692947288415163, 2.1227385898756546], [-2.02527787937598, 1.1692947288415163, 2.1227385898756546], [0.0, -2.3385894576830326, 2.1227385898756546]]" orig_cell="_JSON [[2.02527787937598, 1.1692947288415163, 2.1227385898756546], [-2.02527787937598, 1.1692947288415163, 2.1227385898756546], [0.0, -2.3385894576830326, 2.1227385898756546]]" supercell_n="2 2 1" MD_pressure_GPa=0.39451944363800906 MD_temperature_K=366.6666666666667 MD_time_fs=25.0 MD_step=25 md_energy=-23.52364601678248 _ConfigSet_loc=" / 0 / 0" vasp_rundir=run_iter_2/run_VASP_sipo911q REF_energy=-14.33599176 REF_stress="0.731113771823177 0.7325979295927573 0.7843129066023631 -0.009478600987459871 2.720765578156663e-05 6.201790034258874e-05" pbc="T T T"
Li       0.00482668      -0.00975398       3.18386346       0.39495204      -0.32575681       0.13072045      -0.00967720       0.23232442       0.17429118       0.00096469       0.01131046      -0.01139058
Cu      -0.03488934      -0.00282331      -0.00933001       0.19525564      -0.04061484       0.33514498       1.60703655      -0.15326378       0.68249237       0.13578218      -0.01992059       0.02166705
Li      -2.02185035       1.14297755       5.30906488       0.04693399      -0.39099906       0.16933224      -0.01255874       0.29991019      -0.08967521      -0.02822868       0.10584780       0.01547435
Cu      -2.02582932       1.21202225       2.14655453       0.64067114       0.43332228      -0.61770426       0.27450208      -1.87183045      -1.67385150       0.00232446      -0.13020705      -0.05172299
Li       2.03370132       1.18165257       5.31393083      -0.00811908       0.44401467       0.12725528      -0.17322511      -0.21256440      -0.19141456      -0.03933606      -0.01603225       0.00222677
Cu       2.03496708       1.14334620       2.11127199      -0.43347379       0.83838401       0.50564462      -0.37825848       1.37135946       0.26503892      -0.03705871       0.03603894      -0.00979055
Li      -0.00256619       2.32740602       7.39962170      -0.21837980      -0.34782160      -0.05613880       0.01280793       0.15795455       0.72612578       0.02294372       0.01844826       0.02203507
Cu       0.02421043       2.32823987       4.24431367      -0.61784015      -0.61052865      -0.59425451      -1.32062703       0.17611001       0.10699303      -0.05739159      -0.00548557       0.01150088
8
Lattice="4.049975249703897 2.338254300627866 4.244868735364171 -4.049975249703897 2.338254300627866 4.244868735364171 0.0 -2.338254300627866 2.1224343676820854" Properties=species:S:1:pos:R:3:momenta:R:3:md_forces:R:3:REF_forces:R:3 config_type=supercell_bulk_MD buildcell_config_i=2 RSS_min_vol_per_atom=8.0 buildcell_type=narrow gap_rss_group=ALL gap_rss_iter=2 buildcell_symmetry="160 R3m R 3 -2\" @ 0.01" optimize_pressure_GPa=0.39451944363800906 optimize_config_type=optimize_last_converged optimize_energy=-11.84267179366303 optimize_stress="-0.002458237876328812 -0.0024582378763310375 -0.0024481211929734356 -1.2735746942420825e-14 -2.8606406600320355e-16 -1.00939497534938e-15" optimize_virial="_JSON [[0.14828945888301703, 9.449109675287587e-11, 1.171071814840829e-10], [9.451800067930454e-11, 0.1482894574392013, 2.2838735865422386e-09], [1.1711011338861765e-10, 2.283862955268844e-09, 0.1476791846364165]]" optimize_n_steps=10 E_per_atom_dist_to_nearby=0.04648946169009882 primitive_cell="_JSON [[2.02527787937598, 1.1692947288415163, 2.1227385898756546], [-2.02527787937598, 1.1692947288415163, 2.1227385898756546], [0.0, -2.3385894576830326, 2.1227385898756546]]" orig_cell="_JSON [[2.02527787937598, 1.1692947288415163, 2.1227385898756546], [-2.02527787937598, 1.1692947288415163, 2.1227385898756546], [0.0, -2.3385894576830326, 2.1227385898756546]]" supercell_n="2 2 1" MD_pressure_GPa=0.39451944363800906 MD_temperature_K=633.3333333333334 MD_time_fs=50.0 MD_step=50 md_energy=-23.313427898953165 _ConfigSet_loc=" / 0 / 1" vasp_rundir=run_iter_2/run_VASP_q8rbbkva REF_energy=-14.31691932 REF_stress="0.7312380362753076 0.7317293523947546 0.7842852214711334 -0.010173103357270011 -1.0504366236224635e-05 0.00011636056698100585" pbc="T T T"
Li       0.00546428       0.06195279       3.15102384      -0.69884983       0.57302741      -0.24933828       0.12706434      -0.71617000       0.61978186       0.01022722      -0.20300021      -0.01524648
Cu       0.03750758      -0.02007737       0.01787642       1.99735127      -0.66786850      -0.50246337      -1.89688430       0.33249584      -1.58840633      -0.13569479       0.19833821       0.04123228
Li      -2.02471424       1.18800375       5.30169285      -0.14905825       0.60495012       0.19971413      -0.09272534      -0.40796256       0.44534769      -0.01846026      -0.05943079       0.05606154
Cu      -1.99841712       1.13914593       2.08914632      -0.43545711      -2.94211677      -0.46381411      -1.36771211       2.11464408       1.46615583      -0.11021677       0.07038918      -0.05491750
Li       2.00605417       1.13136028       5.28774444       0.13685939      -1.00454817       0.34260902       0.33668127       0.15613295       0.66543854       0.02907336       0.13968297       0.08728520
Cu       2.01662008       1.22917903       2.14925484       0.37793978       1.90967094       0.31007982       0.80178894      -1.60708696      -1.95560933       0.03461448      -0.15496697      -0.12911657
Li      -0.00680313       2.40124861       7.42743612       0.38641225       0.76286420      -0.24284362      -0.01397015      -0.64796613       0.18179570       0.04707060      -0.20050176      -0.05363662
Cu      -0.05352641       2.31667831       4.23962453      -1.61519750       0.76402079       0.60605640       2.10575735       0.77591279       0.16549604       0.14338616       0.20948938       0.06833815
8
Lattice="4.048951066923627 2.337662988423978 4.24379526671431 -4.048951066923627 2.337662988423978 4.24379526671431 0.0 -2.337662988423978 2.121897633357155" Properties=species:S:1:pos:R:3:momenta:R:3:md_forces:R:3:REF_forces:R:3 config_type=supercell_bulk_MD buildcell_config_i=2 RSS_min_vol_per_atom=8.0 buildcell_type=narrow gap_rss_group=ALL gap_rss_iter=2 buildcell_symmetry="160 R3m R 3 -2\" @ 0.01" optimize_pressure_GPa=0.39451944363800906 optimize_config_type=optimize_last_converged optimize_energy=-11.84267179366303 optimize_stress="-0.002458237876328812 -0.0024582378763310375 -0.0024481211929734356 -1.2735746942420825e-14 -2.8606406600320355e-16 -1.00939497534938e-15" optimize_virial="_JSON [[0.14828945888301703, 9.449109675287587e-11, 1.171071814840829e-10], [9.451800067930454e-11, 0.1482894574392013, 2.2838735865422386e-09], [1.1711011338861765e-10, 2.283862955268844e-09, 0.1476791846364165]]" optimize_n_steps=10 E_per_atom_dist_to_nearby=0.10051056506612976 primitive_cell="_JSON [[2.02527787937598, 1.1692947288415163, 2.1227385898756546], [-2.02527787937598, 1.1692947288415163, 2.1227385898756546], [0.0, -2.3385894576830326, 2.1227385898756546]]" orig_cell="_JSON [[2.02527787937598, 1.1692947288415163, 2.1227385898756546], [-2.02527787937598, 1.1692947288415163, 2.1227385898756546], [0.0, -2.3385894576830326, 2.1227385898756546]]" supercell_n="2 2 1" MD_pressure_GPa=0.39451944363800906 MD_temperature_K=900.0 MD_time_fs=75.0 MD_step=75 md_energy=-22.881259071944918 _ConfigSet_loc=" / 0 / 2" vasp_rundir=run_iter_2/run_VASP_kzjxayl8 REF_energy=-14.26645541 REF_stress="0.7306878927214965 0.7301757975259053 0.78603078970855 -0.010615995520835404 -0.00048110388704531023 -0.00015349325836324176" pbc="T T T"
Li      -0.07224857      -0.13750758       3.15973130       0.67008434      -0.51864361      -0.37559446       0.44189230       1.63976763      -0.05400443       0.17802739       0.38824372       0.04993750
Cu       0.02461813      -0.02854504      -0.02447751      -2.91234769       0.77445702      -0.28244398      -0.83115786       1.03606874       0.69613860       0.04774883      -0.17234921      -0.07941999
Li      -2.05557724       1.12088139       5.25905971       0.31472803      -0.61170968      -0.62217128       0.08880699       0.64895912       1.07841242       0.12674550       0.15742719       0.06977994
Cu      -2.07166427       1.12324468       2.15116762      -1.73451419       2.22123714       2.74966823       1.61389693       0.71883512      -1.67303348       0.15227449      -0.05541820       0.03302789
Li       2.12040221       1.14739994       5.30786743      -0.00300910       1.55265770      -0.36842104      -0.67264975       0.24601792       0.52200621      -0.27732409       0.08802574      -0.00824527
Cu       2.05415767       1.24356117       2.07897878       0.36474662      -3.13444002      -1.69153199      -1.32930334      -4.03080817       2.00336288      -0.18212137      -0.37904649       0.10403921
Li       0.03614142       2.24601321       7.42832245      -0.77874795      -0.63584370       0.16973034      -0.63154784       1.62542177       0.44423015      -0.12183717       0.31317183      -0.02818405
Cu      -0.01024787       2.36966929       4.28891073       4.07905994       0.35228515       0.42076417       1.32006258      -1.88426212      -3.01711235       0.07648643      -0.34005458      -0.14093523
8
Lattice="4.04293087864738 2.3341872311021143 4.237485374080589 -4.04293087864738 2.3341872311021143 4.237485374080589 0.0 -2.3341872311021143 2.1187426870402946" Properties=species:S:1:pos:R:3:momenta:R:3:md_forces:R:3:REF_forces:R:3 config_type=supercell_bulk_MD buildcell_config_i=2 RSS_min_vol_per_atom=8.0 buildcell_type=narrow gap_rss_group=ALL gap_rss_iter=2 buildcell_symmetry="160 R3m R 3 -2\" @ 0.01" optimize_pressure_GPa=0.39451944363800906 optimize_config_type=optimize_last_converged optimize_energy=-11.84267179366303 optimize_stress="-0.002458237876328812 -0.0024582378763310375 -0.0024481211929734356 -1.2735746942420825e-14 -2.8606406600320355e-16 -1.00939497534938e-15" optimize_virial="_JSON [[0.14828945888301703, 9.449109675287587e-11, 1.171071814840829e-10], [9.451800067930454e-11, 0.1482894574392013, 2.2838735865422386e-09], [1.1711011338861765e-10, 2.283862955268844e-09, 0.1476791846364165]]" optimize_n_steps=10 E_per_atom_dist_to_nearby=0.2791197296999206 primitive_cell="_JSON [[2.02527787937598, 1.1692947288415163, 2.1227385898756546], [-2.02527787937598, 1.1692947288415163, 2.1227385898756546], [0.0, -2.3385894576830326, 2.1227385898756546]]" orig_cell="_JSON [[2.02527787937598, 1.1692947288415163, 2.1227385898756546], [-2.02527787937598, 1.1692947288415163, 2.1227385898756546], [0.0, -2.3385894576830326, 2.1227385898756546]]" supercell_n="2 2 1" MD_pressure_GPa=0.39451944363800906 MD_temperature_K=2233.3333333333335 MD_time_fs=175.0 MD_step=175 md_energy=-21.45238575487459 _ConfigSet_loc=" / 0 / 3" vasp_rundir=run_iter_2/run_VASP_v0nlcb6i REF_energy=-14.14582393 REF_stress="0.7314939881189908 0.7306275828787827 0.7835483874450505 -0.009085354605119451 -0.003082785022498813 -0.0022844513909911126" pbc="T T T"
Li       0.07592227      -0.08690575       2.95608794       0.31175701      -0.12208896      -0.52545590      -1.09910322       0.40307181       1.41617566      -0.23623335       0.33571777       0.19233835
Cu      -0.06412754      -0.05898656       0.03782606      -3.07827930       2.33689849       4.77948652       3.20959157       0.16263296      -1.23136743       0.41630549      -0.26607272      -0.02227739
Li      -2.01896829       1.03283021       5.19981520      -0.66132317      -0.44514755      -0.26476225      -1.18494415       1.06806212       2.87380383       0.13880704       0.57429490       0.27809586
Cu      -2.16196754       1.23391973       2.20954800       0.87284482       4.85975243      -3.97576751       4.69201661      -2.36309952      -4.94961907       0.61885836      -0.41612295      -0.21208812
Li       2.12609967       1.07640911       5.50764836       1.45120911       2.78928613       0.84402364      -0.48107943       0.48801012      -1.61956855      -0.32067435       0.31960278      -0.18753080
Cu       2.07714535       1.22995863       2.01153574      -2.34868505      -5.56492799       0.38253471      -1.76011380      -0.36596010       1.93342800       0.04866115      -0.28289314       0.01583996
Li       0.06681531       2.31575489       7.40253950       0.00108121       1.06352606       0.36894109      -1.04934174       1.14841665       0.73403648      -0.40935989       0.01466586      -0.15470928
Cu       0.12166098       2.29955393       4.22931231       3.45139538      -4.91729862      -1.60900030      -2.32702586      -0.54113404       0.84311108      -0.25636446      -0.27919248       0.09033141
8
Lattice="4.04103065281338 2.3330901352053335 4.235493705308423 -4.04103065281338 2.3330901352053335 4.235493705308423 0.0 -2.3330901352053335 2.1177468526542116" Properties=species:S:1:pos:R:3:momenta:R:3:md_forces:R:3:REF_forces:R:3 config_type=supercell_bulk_MD buildcell_config_i=2 RSS_min_vol_per_atom=8.0 buildcell_type=narrow gap_rss_group=ALL gap_rss_iter=2 buildcell_symmetry="160 R3m R 3 -2\" @ 0.01" optimize_pressure_GPa=0.39451944363800906 optimize_config_type=optimize_last_converged optimize_energy=-11.84267179366303 optimize_stress="-0.002458237876328812 -0.0024582378763310375 -0.0024481211929734356 -1.2735746942420825e-14 -2.8606406600320355e-16 -1.00939497534938e-15" optimize_virial="_JSON [[0.14828945888301703, 9.449109675287587e-11, 1.171071814840829e-10], [9.451800067930454e-11, 0.1482894574392013, 2.2838735865422386e-09], [1.1711011338861765e-10, 2.283862955268844e-09, 0.1476791846364165]]" optimize_n_steps=10 E_per_atom_dist_to_nearby=0.3345859984942994 primitive_cell="_JSON [[2.02527787937598, 1.1692947288415163, 2.1227385898756546], [-2.02527787937598, 1.1692947288415163, 2.1227385898756546], [0.0, -2.3385894576830326, 2.1227385898756546]]" orig_cell="_JSON [[2.02527787937598, 1.1692947288415163, 2.1227385898756546], [-2.02527787937598, 1.1692947288415163, 2.1227385898756546], [0.0, -2.3385894576830326, 2.1227385898756546]]" supercell_n="2 2 1" MD_pressure_GPa=0.39451944363800906 MD_temperature_K=2500.0 MD_time_fs=200.0 MD_step=200 md_energy=-21.00865560451956 _ConfigSet_loc=" / 0 / 4" vasp_rundir=run_iter_2/run_VASP_uljtsrzg REF_energy=-13.35962278 REF_stress="0.7349020978361789 0.716776533736074 0.7707638105051047 -0.014670135773335586 -0.004465298361692334 0.0024662169006229957" pbc="T T T"
Li      -0.08197009       0.12274598       3.09605536       0.08381644      -0.08317175       1.21540219       2.39014097      -2.38331733       1.79470066       0.50312617      -0.24283718       0.24239832
Cu      -0.07776011      -0.01287063       0.10184095       2.26992437       0.35597958      -1.48784198       2.13833048      -0.19787618      -1.53515859       0.41020776      -0.17177755       0.02585772
Li      -1.99792696       1.38248077       5.40661720       1.23952447      -0.55156754      -1.98491149       0.99230267      -3.15691026      -3.25419694       0.10238223      -0.89203316      -0.23359730
Cu      -1.98978032       1.34657258       1.99406737       5.02730573       1.15962329      -1.68353900      -1.88796842      -2.15937914       7.66776620      -0.57361089       0.72481059       0.94508867
Li       2.32694584       1.50217495       6.06672946      -0.29107864       0.28605038       2.87585539      -0.22184132       1.36544861      -2.48998136      -1.00820314      -0.87065227      -1.35088717
Cu       1.89058307       1.07998746       2.11120978      -6.74227598       0.77831043       3.81998810      -1.18635327       4.69229580      -1.73979951      -0.23455124       1.30543951       0.20173917
Li      -0.22836182       2.43791818       7.37920481      -1.66832983      -1.72169252      -1.25103453      -1.03267011      -1.44494546      -0.89866016       0.47504163      -0.31116537       0.06038301
Cu       0.17491652       2.16739929       4.17965157       0.08111343      -0.22353188      -1.50391867      -1.19194100       3.28468396       0.45532971       0.32560748       0.45821543       0.10901757
4
Lattice="2.982552470828796 1.7219774719050913 3.2917088812473883 -2.982552470828652 1.7219774719050926 3.2917088812472546 7.680896539808194e-14 -3.4439549438102905 3.2917088812473767" Properties=species:S:1:pos:R:3:optimize_forces:R:3:momenta:R:3:md_forces:R:3:REF_forces:R:3 config_type=supercell_vacancy_optimize_last_unconverged_MD buildcell_config_i=29 RSS_min_vol_per_atom=10.0 buildcell_type=narrow_odd gap_rss_group=ALL gap_rss_iter=2 buildcell_symmetry="146 R3 R 3 @ 0.01" optimize_pressure_GPa=0.006910111000525614 optimize_config_type=optimize_last_unconverged optimize_virial="_JSON [[1.4054326473553391, -2.270406085358445e-13, -1.7828175020148517e-12], [-2.2670754162845697e-13, 1.4054326473587682, 1.0219707025083125e-12], [-1.8009066460322742e-12, 1.0241217596185237e-12, 0.9360567951280887]]" optimize_n_steps=20 E_per_atom_dist_to_nearby=0.10369394160472645 primitive_cell="_JSON [[2.8203303500759214, 1.6283184868200045, 3.66632285997942], [-2.8203303500759214, 1.6283184868200045, 3.66632285997942], [0.0, -3.256636973640009, 3.66632285997942]]" orig_cell="_JSON [[2.8203303500759214, 1.6283184868200045, 3.66632285997942], [-2.8203303500759214, 1.6283184868200045, 3.66632285997942], [0.0, -3.256636973640009, 3.66632285997942]]" supercell_n="1 1 1" vacancy_Z=3 vacancy_pos="_JSON [[-2.220446049250313e-16, -1.1102230246251565e-16, 2.795675471961571]]" optimize_energy=-7.94668157996966 optimize_stress="-0.013874820797069375 -0.013874820797069686 -0.009241012233994247 -2.467644144577008e-16 5.14569876630686e-16 -1.81999202058071e-17" MD_pressure_GPa=0.006910111000525614 MD_temperature_K=316.6666666666667 MD_time_fs=50.0 MD_step=50 md_energy=-8.153203045513562 _ConfigSet_loc=" / 0 / 5" vasp_rundir=run_iter_2/run_VASP_6qxnh_zx REF_energy=-6.78899853 REF_stress="0.001887015851280109 -0.0009898052745321898 0.011737420291784102 -0.002424468269959167 0.0007806186682311624 -0.0001314458576326269" pbc="T T T"
Li      -1.41775733      -0.60955341       7.30740307       0.08579440      -0.01473186      -0.04563145       0.62450440      -0.08667569       1.06146788       0.02552394       0.42398323       0.74589152      -0.25819242      -0.06964064       0.09639769
Li       1.24917581      -1.16998270       7.18788827      -0.03013904       0.08166606      -0.04563145       0.02637891      -0.52859483      -0.39814145       0.13908947      -0.44651236      -0.51722882       0.36296597       0.17695187      -0.02251535
Li       0.23669306       1.82733458       6.73104963      -0.05565537      -0.06693420      -0.04563145      -0.49388283       0.90500162      -0.90428030      -0.44375947       0.51242141      -0.52656300       0.03284350       0.11734752       0.25784738
Li      -0.06811154      -0.04779848       4.74814293       0.00000000      -0.00000000       0.13689434      -0.15700048      -0.28973111       0.24095388       0.27914606      -0.48989228       0.29790030      -0.13761706      -0.22465875      -0.33172972
9
Lattice="4.3475166959958536 -1.1568482587795156e-15 -1.9094890040236154e-14 -2.1737583479979268 3.7650599021094986 -6.27532744410577e-14 -4.8382631328897055e-14 -1.0039207754378375e-13 7.300404547839425" Properties=species:S:1:pos:R:3:optimize_forces:R:3:momenta:R:3:md_forces:R:3:REF_forces:R:3 config_type=supercell_interstitial_optimize_last_converged_MD buildcell_config_i=58 RSS_min_vol_per_atom=7.0 buildcell_type=wide gap_rss_group=ALL gap_rss_iter=2 buildcell_symmetry="189 P-62m P -6 -2 @ 0.01" optimize_pressure_GPa=0.5690117561888044 optimize_config_type=optimize_last_converged optimize_virial="_JSON [[0.4259748214046084, -3.3898439610879905e-10, -5.751733647555923e-11], [-3.390316916096481e-10, 0.4259748213751351, 3.931994172894847e-11], [-5.761252760862006e-11, 3.933076912784632e-11, 0.42338051402163224]]" optimize_n_steps=20 E_per_atom_dist_to_nearby=0.9893930717094888 primitive_cell="_JSON [[4.365610116391412, 0.0, 0.0], [-2.182805058195706, 3.7807292638133028, 0.0], [0.0, 0.0, 3.482981382631248]]" orig_cell="_JSON [[4.365610116391412, 0.0, 0.0], [-2.182805058195706, 3.7807292638133028, 0.0], [0.0, 0.0, 3.482981382631248]]" supercell_n="1 1 2" interstitial=8 optimize_energy=-69.2144840691185 optimize_stress="-0.0035602850428811867 -0.003560285042881007 -0.003538601898112956 -1.1691156493804175e-16 -3.9137424288454084e-17 -1.4215797963040429e-18" MD_pressure_GPa=1.6801724267746545e-09 MD_temperature_K=983.3333333333334 MD_time_fs=150.0 MD_step=150 md_energy=-68.13012210180538 _ConfigSet_loc=" / 0 / 6" vasp_rundir=run_iter_2/run_VASP_tu5fntxc REF_energy=-11.71067851 REF_stress="0.9231272285645377 0.9229466535353903 1.0820514992250723 -0.0062391370902720395 -0.0007626443640089347 0.0014425647022897816" pbc="T T T"
Li      -0.01006399       0.01811028       1.78396459       0.00000000       0.00000000       0.00000000      -1.09378965       0.32586029      -0.18455989       0.90643928      -1.08697385       3.65873436       0.01441835       0.00611663       0.06642272
Cu       1.04437839       1.72177662      -0.07798682       0.00021713       0.00027771       0.00024307      -2.07364132       1.46879503      -0.39911650      -8.08253829       6.19087745       4.08808698      -0.69167712      -0.68727232       1.64255848
Cu       2.30002549       0.01776599      -0.08652525      -0.00034907       0.00004918       0.00024307      -0.01958531      -1.65041378       0.33882028       0.29091818      -3.18509432       0.61052050       1.19249546       0.58814314       1.85526187
Cu      -1.21406623       2.03386497      -0.02788754       0.00013194      -0.00032689       0.00024307      -2.35716451       4.25346895      -0.03226091       6.33484633      -1.07461272       2.77003719      -0.27839765       0.30858944       1.58630975
Li       0.00835511       0.03420013       5.48259741       0.00000000       0.00000000       0.00000000      -0.51128862      -0.60151719      -0.52125784      -1.04135847      -2.92801780       0.45639915      -0.04799431      -0.11294892      -0.13299448
Cu       1.02113273       1.72365605       3.72502570       0.00021713       0.00027771      -0.00024307       1.32564324      -0.41213436       2.06661332       0.73520906       3.18775287      -3.19741935      -0.58869866      -0.53381736      -0.28470361
Cu       2.36942366       0.02455279       3.65605026      -0.00034907       0.00004918      -0.00024307       1.82104826      -0.95330336      -1.42391658      -2.37340102      -4.05122589      -1.68231975       0.61453465      -0.60605896      -0.42754169
Cu      -1.17386356       2.00250919       3.73480142       0.00013194      -0.00032689      -0.00024307       2.57806641      -0.91232484       1.43838741       3.34833375       2.34694590      -1.31330904      -0.06997690       1.15305942      -0.32239260
Li       0.00616083       2.51261519       5.75755257       0.00000000       0.00000000       0.00000000       0.33071151      -1.51843074      -1.28270930      -0.11844881       0.60034837      -5.39073002      -0.14470383      -0.11581107      -3.98292044
9
Lattice="4.344790674925901 -1.156122880834199e-15 -1.9082916981541277e-14 -2.1723953374629503 3.7626990986116677 -6.271392628892932e-14 -4.835229399343752e-14 -1.0032912875306546e-13 7.2958269790781785" Properties=species:S:1:pos:R:3:optimize_forces:R:3:momenta:R:3:md_forces:R:3:REF_forces:R:3 config_type=supercell_interstitial_optimize_last_converged_MD buildcell_config_i=58 RSS_min_vol_per_atom=7.0 buildcell_type=wide gap_rss_group=ALL gap_rss_iter=2 buildcell_symmetry="189 P-62m P -6 -2 @ 0.01" optimize_pressure_GPa=0.5690117561888044 optimize_config_type=optimize_last_converged optimize_virial="_JSON [[0.4259748214046084, -3.3898439610879905e-10, -5.751733647555923e-11], [-3.390316916096481e-10, 0.4259748213751351, 3.931994172894847e-11], [-5.761252760862006e-11, 3.933076912784632e-11, 0.42338051402163224]]" optimize_n_steps=20 E_per_atom_dist_to_nearby=0.0 primitive_cell="_JSON [[4.365610116391412, 0.0, 0.0], [-2.182805058195706, 3.7807292638133028, 0.0], [0.0, 0.0, 3.482981382631248]]" orig_cell="_JSON [[4.365610116391412, 0.0, 0.0], [-2.182805058195706, 3.7807292638133028, 0.0], [0.0, 0.0, 3.482981382631248]]" supercell_n="1 1 2" interstitial=8 optimize_energy=-69.2144840691185 optimize_stress="-0.0035602850428811867 -0.003560285042881007 -0.003538601898112956 -1.1691156493804175e-16 -3.9137424288454084e-17 -1.4215797963040429e-18" MD_pressure_GPa=1.6801724267746545e-09 MD_temperature_K=1250.0 MD_time_fs=200.0 MD_step=200 md_energy=-77.03465974719079 _ConfigSet_loc=" / 0 / 7" vasp_rundir=run_iter_2/run_VASP_evd0bocw REF_energy=0.8064739 REF_stress="0.7740679635998844 0.7140406335343775 1.135116573753215 -0.02322237479125248 -0.008804709541296534 -0.15444167184042837" pbc="T T T"
Li      -0.04498914      -0.01312042       1.93201853       0.00000000       0.00000000       0.00000000      -1.79121450      -0.20962143      -0.09012708       0.70683467       0.70756899      -1.49093897       0.25774063       0.07868979      -0.35240736
Cu       0.97465096       1.86948433      -0.03217596       0.00021713       0.00027771       0.00024307       0.32429011       1.75203946      -0.91574876      -0.24212423      -2.61870441       1.70293256      -0.38938217      -1.29689265       0.32753278
Cu       2.20654020      -0.01532892      -0.33441722      -0.00034907       0.00004918       0.00024307       1.23100563       0.84527755       3.31705514      -1.67648436       7.57249976       2.54856800       0.92035020       1.97153975      -1.01488202
Cu      -1.24545709       2.11266937       0.09493633       0.00013194      -0.00032689       0.00024307      -0.35933575       3.32303390      -1.04930311       1.63086745      -1.04800773      -3.31885420      -0.53420444      -0.81121185       0.43975891
Li       0.02203647       0.01257466       5.43455535       0.00000000       0.00000000       0.00000000      -0.39756760       0.68516885      -0.60930815       0.83018747      -1.22828947       1.14294799       0.32017868      -0.21022444       0.59490246
Cu       1.13151437       1.76516117       3.69239173       0.00021713       0.00027771      -0.00024307       2.46388629      -1.08020400      -0.47523952       3.69522821      -1.16453120      -0.29968982      -2.06708719       0.26049524      -1.45504901
Cu       2.41415142       0.00102166       3.55851011      -0.00034907       0.00004918      -0.00024307       4.24489521      -0.42119909      -0.35886207       0.95813807       4.22917786       4.57713104      -2.44659345      -7.11568597      -3.79990641
Cu      -0.96928415       1.92458837       4.10390919       0.00013194      -0.00032689      -0.00024307      -3.16686546      -3.42256246      -0.50997485      -9.28545644      -8.25966350      -5.03075534      23.84525122      29.06858219       0.44640698
Li      -1.50915635       1.29854475       4.12458384       0.00000000       0.00000000       0.00000000      -2.54909394      -1.47193279       0.69150840       3.38280917       1.80994971       0.16865874     -19.90625349     -21.94529206       4.81364367
12
Lattice="4.5317773311343 2.2725374025850065 4.456149814589201 4.5457567183478345 -2.370158354649804 4.488319152134593 8.185788853198027 0.046633655672663615 -8.148556377722038" Properties=species:S:1:pos:R:3:optimize_forces:R:3:momenta:R:3:md_forces:R:3:REF_forces:R:3 config_type=supercell_surface_optimize_last_unconverged_MD buildcell_config_i=97 RSS_min_vol_per_atom=6.0 buildcell_type=wide_even gap_rss_group=ALL gap_rss_iter=2 buildcell_symmetry="13 P2/c -P 2yc @ 0.01" optimize_pressure_GPa=0.2061684106822127 optimize_config_type=optimize_last_unconverged optimize_virial="_JSON [[-151.99481019449058, 23.39515897978327, -191.78204897227812], [23.395158979783805, -529.0314848462214, 0.8409166975001252], [-191.782048972278, 0.8409166975000559, -287.54804050529714]]" optimize_n_steps=20 E_per_atom_dist_to_nearby=0.0 primitive_cell="_JSON [[5.557956031173636, 0.0, 0.0], [0.0, 2.5431425628311377, 0.0], [-0.922207536985165, 0.0, 4.603653570669818]]" transformation="_JSON [[1, 1, 1], [1, -1, 1], [1, 0, 0]]" optimize_energy=204.73498932639188 optimize_stress="0.3982421220185156 1.3861172027530329 0.7534056043529725 -0.002203288715085584 0.5024888024140399 -0.061297736055247326" MD_pressure_GPa=6.545352989569367e-14 MD_temperature_K=983.3333333333334 MD_time_fs=150.0 MD_step=150 md_energy=72.71592077245722 _ConfigSet_loc=" / 0 / 8" vasp_rundir=run_iter_2/run_VASP_hipjig4t REF_energy=628.31358908 REF_stress="-0.5770576751072263 -2.1646760832387253 -1.3469183350974536 -2.396820395720507 -1.8256974767672258 -1.9326059591819007" pbc="T T T"
Cu       4.40965180       0.29797098       1.42067596      12.32810133      -5.73079312      15.58486753       2.99576290      -2.83682991       0.82227162      -3.40738146      -1.01439534      -0.52536738      -0.52492758       0.62414456      -0.73836543